 Gaussian 16, Revision A.03,

 ------------------------
 #P HF/6-31G* OPT(CalcFC)
 ------------------------

 --------------------
 Gaussian Calculation
 --------------------
 Symbolic Z-matrix:
 Charge =  0 Multiplicity = 1

 SCF Done:  E(RHF) =  -1682.10537296     A.U. after   16 cycles
 SCF Done:  E(RHF) =  -1682.17204611     A.U. after   16 cycles
 SCF Done:  E(RHF) =  -1682.21430252     A.U. after   15 cycles
 SCF Done:  E(RHF) =  -1682.21824284     A.U. after   16 cycles
 SCF Done:  E(RHF) =  -1682.21107774     A.U. after   16 cycles
 SCF Done:  E(RHF) =  -1682.22738825     A.U. after   15 cycles
 SCF Done:  E(RHF) =  -1682.20840132     A.U. after   16 cycles
 SCF Done:  E(RHF) =  -1682.23151244     A.U. after   16 cycles
 SCF Done:  E(RHF) =  -1682.22789749     A.U. after   15 cycles
 SCF Done:  E(RHF) =  -1682.23366213     A.U. after   14 cycles
 SCF Done:  E(RHF) =  -1682.23420003     A.U. after    8 cycles
 SCF Done:  E(RHF) =  -1682.23420006     A.U. after    7 cycles
 SCF Done:  E(RHF) =  -1682.23420007     A.U. after    7 cycles
 Optimization completed.
    -- Stationary point found.
 Normal termination of Gaussian 16 at Thu Jan 30 16:35:08 2025.

 --------------------------------------------------------
 #P PBE1PBE/6-31G* OPT(CalcFC) GEOM(ALLCheck) Guess(Read)
 --------------------------------------------------------

 Structure from the checkpoint file:  "binder_28.antechamber.chk"
 --------------------
 Gaussian Calculation
 --------------------
 Charge =  0 Multiplicity = 1

 SCF Done:  E(RPBE1PBE) =  -1689.21991970     A.U. after   13 cycles

  Exact polarizability:   0.000   0.000   0.000   0.000   0.000   0.000
 Approx polarizability: 477.552 -41.585 435.047 -18.491 -10.352 228.588

 SCF Done:  E(RPBE1PBE) =  -1689.22751493     A.U. after   12 cycles
 SCF Done:  E(RPBE1PBE) =  -1689.22764639     A.U. after   11 cycles
 SCF Done:  E(RPBE1PBE) =  -1689.22767202     A.U. after   10 cycles
 SCF Done:  E(RPBE1PBE) =  -1689.22767448     A.U. after    9 cycles
 SCF Done:  E(RPBE1PBE) =  -1689.22767455     A.U. after    7 cycles
 Optimization completed.
    -- Stationary point found.

                         Standard orientation:
 ---------------------------------------------------------------------
 Center     Atomic      Atomic             Coordinates (Angstroms)
 Number     Number       Type             X           Y           Z
 ---------------------------------------------------------------------
      1          6           0        0.765488   -2.530240    0.090681
      2          6           0        4.896372   -3.848645   -0.194480
      3          6           0        2.323631    1.153240   -0.309526
      4          6           0        3.203344    2.381548   -0.438744
      5          6           0        2.334848    3.636550   -0.568090
      6          6           0        3.187358    4.899035   -0.688853
      7          6           0        4.164416    5.027718    0.478264
      8          6           0        5.032035    3.777670    0.611533
      9          6           0        4.178668    2.516712    0.733380
     10          6           0       -4.033469   -1.429922    0.497528
     11          6           0       -3.861168   -0.051415    0.371767
     12          6           0       -2.583104    0.478548    0.205966
     13          6           0       -1.473738   -0.352266    0.153495
     14          7           0        1.294937   -1.303627   -0.049996
     15          6           0        2.611722   -1.191108   -0.179869
     16          8           0        3.172810    0.000146   -0.319055
     17          6           0        3.423052   -2.336699   -0.171733
     18          7           0        4.780033   -2.554060   -0.279902
     19          7           0        3.694089   -4.503240   -0.035961
     20          6           0        2.723597   -3.540885   -0.017964
     21          7           0        1.410847   -3.701117    0.116316
     22          7           0       -0.598631   -2.660165    0.228080
     23          6           0       -1.635692   -1.742724    0.267815
     24          6           0       -2.930538   -2.263659    0.444357
     25          1           0        5.830498   -4.393918   -0.239399
     26          1           0        1.611528    1.079472   -1.140578
     27          1           0        1.751034    1.170773    0.626556
     28          1           0        3.789597    2.271980   -1.364234
     29          1           0        1.689622    3.720125    0.320125
     30          1           0        1.665508    3.546940   -1.434288
     31          1           0        2.540780    5.783179   -0.746852
     32          1           0        3.752559    4.862056   -1.631621
     33          1           0        3.597176    5.174915    1.409231
     34          1           0        4.792326    5.918227    0.350983
     35          1           0        5.698342    3.865073    1.478439
     36          1           0        5.680886    3.690592   -0.272355
     37          1           0        4.811880    1.624705    0.793019
     38          1           0        3.600018    2.558894    1.669665
     39          1           0       -5.026196   -1.836127    0.664201
     40          1           0       -2.456834    1.555594    0.144144
     41          1           0       -0.479661    0.055322    0.035129
     42          1           0        3.542632   -5.496050    0.054113
     43          1           0       -0.863509   -3.629985    0.331115
     44          1           0       -3.064943   -3.337889    0.552444
     45         16           0       -5.270970    1.025921    0.388580
     46          8           0       -4.809140    2.348582    0.784378
     47          8           0       -6.343478    0.321330    1.076465
     48          1           0       -5.120042    1.782454   -1.705307
     49          7           0       -5.775189    1.202319   -1.191450
     50          6           0       -6.258707    0.030607   -1.901403
     51          1           0       -6.698416    0.360454   -2.846403
     52          1           0       -5.476699   -0.713997   -2.111218
     53          1           0       -7.045404   -0.433150   -1.302851
 ---------------------------------------------------------------------

 Normal termination of Gaussian 16 at Thu Jan 30 18:18:02 2025.
 Gaussian 16:  ES64L-G16RevA.03 25-Dec-2016

 ----------------------------------------------------------------------
 #P HF/6-31G* GEOM(AllCheck) Guess(Read) NoSymm Pop=mk IOp(6/33=2) GFIn
 put GFPrint
 ----------------------------------------------------------------------

 Structure from the checkpoint file:  "binder_28.antechamber.chk"
 --------------------
 Gaussian Calculation
 --------------------
 Charge =  0 Multiplicity = 1

 SCF Done:  E(RHF) =  -1682.22580920     A.U. after   14 cycles

 Alpha  occ. eigenvalues --  -92.20291 -20.61544 -20.54677 -20.54648 -15.64176
 Alpha  occ. eigenvalues --  -15.61726 -15.59979 -15.57386 -15.57225 -15.57208
 Alpha  occ. eigenvalues --  -11.37905 -11.37523 -11.33322 -11.32606 -11.31562
 Alpha  occ. eigenvalues --  -11.29219 -11.27159 -11.26797 -11.26609 -11.26491
 Alpha  occ. eigenvalues --  -11.25850 -11.25226 -11.24205 -11.23121 -11.22586
 Alpha  occ. eigenvalues --  -11.22137 -11.21813 -11.21741 -11.21653  -9.17340
 Alpha  occ. eigenvalues --   -6.85954  -6.85940  -6.85842  -1.45246  -1.45139
 Alpha  occ. eigenvalues --   -1.37880  -1.33991  -1.33262  -1.25620  -1.22989
 Alpha  occ. eigenvalues --   -1.21901  -1.18119  -1.16540  -1.13054  -1.06877
 Alpha  occ. eigenvalues --   -1.04487  -1.03846  -1.02141  -1.00674  -0.95882
 Alpha  occ. eigenvalues --   -0.94887  -0.91352  -0.89178  -0.86873  -0.85130
 Alpha  occ. eigenvalues --   -0.84910  -0.83562  -0.82002  -0.80845  -0.78698
 Alpha  occ. eigenvalues --   -0.76096  -0.75234  -0.74478  -0.72747  -0.69816
 Alpha  occ. eigenvalues --   -0.68802  -0.68381  -0.67617  -0.66722  -0.66485
 Alpha  occ. eigenvalues --   -0.64659  -0.63940  -0.63697  -0.62825  -0.62505
 Alpha  occ. eigenvalues --   -0.61255  -0.60814  -0.60599  -0.60243  -0.60229
 Alpha  occ. eigenvalues --   -0.59870  -0.59606  -0.57782  -0.56118  -0.56043
 Alpha  occ. eigenvalues --   -0.54169  -0.52940  -0.52758  -0.52316  -0.51581
 Alpha  occ. eigenvalues --   -0.50839  -0.50372  -0.49214  -0.48584  -0.48502
 Alpha  occ. eigenvalues --   -0.47833  -0.47295  -0.46191  -0.46042  -0.45406
 Alpha  occ. eigenvalues --   -0.44842  -0.44424  -0.43465  -0.42964  -0.42362
 Alpha  occ. eigenvalues --   -0.41987  -0.39565  -0.35794  -0.34396  -0.29213
 Alpha virt. eigenvalues --    0.09558   0.11803   0.12810   0.16959   0.20630
 Alpha virt. eigenvalues --    0.21205   0.21435   0.22213   0.22263   0.23502
 Alpha virt. eigenvalues --    0.24517   0.25540   0.26021   0.27091   0.27669

 Mulliken charges:
               1
     1  C    0.920677
     2  C    0.284835
     3  C    0.015807
     4  C   -0.185864
     5  C   -0.320403
     6  C   -0.310300
     7  C   -0.310884
     8  C   -0.313509
     9  C   -0.314358
    10  C   -0.160324
    11  C   -0.354383
    12  C   -0.172450
    13  C   -0.243882
    14  N   -0.771148
    15  C    0.793198
    16  O   -0.654279
    17  C    0.030479
    18  N   -0.532952
    19  N   -0.838592
    20  C    0.692012
    21  N   -0.723037
    22  N   -0.968325
    23  C    0.405226
    24  C   -0.273889
    25  H    0.234133
    26  H    0.177803
    27  H    0.176816
    28  H    0.174488
    29  H    0.154492
    30  H    0.161231
    31  H    0.166168
    32  H    0.154077
    33  H    0.152602
    34  H    0.164055
    35  H    0.165565
    36  H    0.154482
    37  H    0.196967
    38  H    0.146532
    39  H    0.260511
    40  H    0.257024
    41  H    0.289098
    42  H    0.415381
    43  H    0.415993
    44  H    0.210613
    45  S    1.656114
    46  O   -0.691216
    47  O   -0.705102
    48  H    0.392410
    49  N   -0.824096
    50  C   -0.331839
    51  H    0.194346
    52  H    0.165159
    53  H    0.222535
 Sum of Mulliken charges =  -0.00000

 Dipole moment (field-independent basis, Debye):
    X=             -5.2197    Y=              4.9191    Z=             -4.4692  Tot=              8.4509
 Quadrupole moment (field-independent basis, Debye-Ang):
   XX=           -235.9335   YY=            102.5445   ZZ=           -235.7520
   XY=           -109.9717   XZ=            -57.1153   YZ=            -82.9957

 ESP charges:
               1
     1  C    0.767470
     2  C    0.309464
     3  C   -0.081144
     4  C    0.103344
     5  C   -0.112191
     6  C    0.013052
     7  C   -0.038576
     8  C   -0.018885
     9  C   -0.072856
    10  C   -0.046526
    11  C   -0.096075
    12  C   -0.083135
    13  C   -0.267947
    14  N   -0.639320
    15  C    0.564388
    16  O   -0.307906
    17  C    0.036763
    18  N   -0.579927
    19  N   -0.563368
    20  C    0.536587
    21  N   -0.747973
    22  N   -0.586137
    23  C    0.438413
    24  C   -0.390596
    25  H    0.125854
    26  H    0.108095
    27  H    0.117382
    28  H    0.036396
    29  H    0.039438
    30  H    0.020130
    31  H    0.007613
    32  H    0.011723
    33  H    0.019694
    34  H    0.008586
    35  H    0.014666
    36  H    0.015259
    37  H    0.030022
    38  H    0.031105
    39  H    0.159660
    40  H    0.158554
    41  H    0.131249
    42  H    0.404213
    43  H    0.342237
    44  H    0.191592
    45  S    1.034234
    46  O   -0.566487
    47  O   -0.527699
    48  H    0.378525
    49  N   -0.645321
    50  C    0.024503
    51  H    0.080620
    52  H    0.022759
    53  H    0.088478
 Sum of ESP charges =   0.00000

 Normal termination of Gaussian 16 at Thu Jan 30 18:20:27 2025.
