 Gaussian 16, Revision A.03,

 ------------------------
 #P HF/6-31G* OPT(CalcFC)
 ------------------------

 --------------------
 Gaussian Calculation
 --------------------
 Symbolic Z-matrix:
 Charge =  0 Multiplicity = 1

 SCF Done:  E(RHF) =  -1627.09798942     A.U. after   16 cycles
 SCF Done:  E(RHF) =  -1627.16018808     A.U. after   16 cycles
 SCF Done:  E(RHF) =  -1627.19555707     A.U. after   16 cycles
 SCF Done:  E(RHF) =  -1627.19968825     A.U. after   16 cycles
 SCF Done:  E(RHF) =  -1627.15965345     A.U. after   16 cycles
 SCF Done:  E(RHF) =  -1627.20549535     A.U. after   15 cycles
 SCF Done:  E(RHF) =  -1627.20438700     A.U. after   13 cycles
 SCF Done:  E(RHF) =  -1627.20945583     A.U. after   14 cycles
 SCF Done:  E(RHF) =  -1627.21172329     A.U. after   16 cycles
 SCF Done:  E(RHF) =  -1627.21235170     A.U. after   15 cycles
 SCF Done:  E(RHF) =  -1627.21259162     A.U. after   10 cycles
 SCF Done:  E(RHF) =  -1627.21259343     A.U. after   11 cycles
 SCF Done:  E(RHF) =  -1627.21259357     A.U. after    8 cycles
 SCF Done:  E(RHF) =  -1627.21259360     A.U. after    8 cycles
 SCF Done:  E(RHF) =  -1627.21259361     A.U. after    7 cycles
 Optimization completed.
    -- Stationary point found.
 Normal termination of Gaussian 16 at Thu Jan 30 16:28:41 2025.

 --------------------------------------------------------
 #P PBE1PBE/6-31G* OPT(CalcFC) GEOM(ALLCheck) Guess(Read)
 --------------------------------------------------------

 Structure from the checkpoint file:  "binder_30.antechamber.chk"
 --------------------
 Gaussian Calculation
 --------------------
 Charge =  0 Multiplicity = 1

 SCF Done:  E(RPBE1PBE) =  -1633.93627276     A.U. after   13 cycles

  Exact polarizability:   0.000   0.000   0.000   0.000   0.000   0.000
 Approx polarizability: 471.264 -42.687 428.505 -14.135 -11.317 216.080

 SCF Done:  E(RPBE1PBE) =  -1633.94321287     A.U. after   12 cycles
 SCF Done:  E(RPBE1PBE) =  -1633.94326667     A.U. after    9 cycles
 SCF Done:  E(RPBE1PBE) =  -1633.94326716     A.U. after    8 cycles
 Optimization completed.
    -- Stationary point found.

                         Standard orientation:
 ---------------------------------------------------------------------
 Center     Atomic      Atomic             Coordinates (Angstroms)
 Number     Number       Type             X           Y           Z
 ---------------------------------------------------------------------
      1          6           0        0.536447   -2.530705    0.034455
      2          6           0        4.678146   -3.836724   -0.113931
      3          6           0        2.095801    1.158017   -0.306364
      4          6           0        2.975320    2.389124   -0.406651
      5          6           0        2.107041    3.641834   -0.557934
      6          6           0        2.958758    4.907168   -0.651045
      7          6           0        3.901484    5.035877    0.544002
      8          6           0        4.768560    3.788009    0.699342
      9          6           0        3.915840    2.524253    0.793613
     10          6           0       -4.277491   -1.450136    0.271717
     11          6           0       -4.102826   -0.073013    0.143346
     12          6           0       -2.824612    0.465448    0.023412
     13          6           0       -1.710489   -0.361196    0.012349
     14          7           0        1.066476   -1.302460   -0.086536
     15          6           0        2.386576   -1.185752   -0.172292
     16          8           0        2.948313    0.007283   -0.290881
     17          6           0        3.200485   -2.329090   -0.138615
     18          7           0        4.560916   -2.542373   -0.201620
     19          7           0        3.473227   -4.495022    0.003617
     20          6           0        2.499874   -3.535518   -0.009715
     21          7           0        1.183781   -3.699694    0.080342
     22          7           0       -0.831483   -2.665017    0.126207
     23          6           0       -1.872067   -1.751558    0.127347
     24          6           0       -3.170572   -2.278762    0.261436
     25          1           0        5.614869   -4.379210   -0.128351
     26          1           0        1.410205    1.083370   -1.159317
     27          1           0        1.494312    1.172409    0.611478
     28          1           0        3.588592    2.283782   -1.314977
     29          1           0        1.436359    3.721202    0.311609
     30          1           0        1.463081    3.552426   -1.443166
     31          1           0        2.311347    5.789479   -0.725433
     32          1           0        3.550931    4.874352   -1.577276
     33          1           0        3.307257    5.179240    1.458604
     34          1           0        4.530206    5.928482    0.436905
     35          1           0        5.409415    3.875264    1.585260
     36          1           0        5.442802    3.704912   -0.165735
     37          1           0        4.549796    1.634002    0.869501
     38          1           0        3.310185    2.562426    1.712850
     39          1           0       -5.275516   -1.857989    0.400844
     40          1           0       -2.703809    1.543067   -0.040017
     41          1           0       -0.714314    0.049065   -0.074513
     42          1           0        3.321758   -5.488426    0.087056
     43          1           0       -1.096398   -3.635821    0.219775
     44          1           0       -3.302877   -3.353229    0.369390
     45         16           0       -5.517945    0.996987    0.141844
     46          8           0       -5.083421    2.326024    0.574333
     47          8           0       -6.612866    0.299708    0.818406
     48          1           0       -6.835636    1.778254   -1.639608
     49          1           0       -5.130065    1.561301   -2.145813
     50          6           0       -5.961568    1.123624   -1.590092
     51          1           0       -6.210246    0.132291   -1.973776
 ---------------------------------------------------------------------

 Normal termination of Gaussian 16 at Thu Jan 30 17:56:52 2025.
 Gaussian 16:  ES64L-G16RevA.03 25-Dec-2016

 ----------------------------------------------------------------------
 #P HF/6-31G* GEOM(AllCheck) Guess(Read) NoSymm Pop=mk IOp(6/33=2) GFIn
 put GFPrint
 ----------------------------------------------------------------------

 Structure from the checkpoint file:  "binder_30.antechamber.chk"
 --------------------
 Gaussian Calculation
 --------------------
 Charge =  0 Multiplicity = 1

 SCF Done:  E(RHF) =  -1627.20509083     A.U. after   14 cycles

 Alpha  occ. eigenvalues --  -92.18059 -20.61491 -20.54170 -20.54161 -15.64131
 Alpha  occ. eigenvalues --  -15.61660 -15.57340 -15.57173 -15.57150 -11.37845
 Alpha  occ. eigenvalues --  -11.37471 -11.33271 -11.32561 -11.31513 -11.29161
 Alpha  occ. eigenvalues --  -11.26900 -11.26730 -11.26543 -11.26364 -11.25802
 Alpha  occ. eigenvalues --  -11.25140 -11.24102 -11.23071 -11.22531 -11.22094
 Alpha  occ. eigenvalues --  -11.21775 -11.21701 -11.21609  -9.15583  -6.84159
 Alpha  occ. eigenvalues --   -6.84098  -6.84082  -1.45194  -1.43416  -1.37833
 Alpha  occ. eigenvalues --   -1.33936  -1.32208  -1.25567  -1.21851  -1.18074
 Alpha  occ. eigenvalues --   -1.16571  -1.13006  -1.07102  -1.05103  -1.03812
 Alpha  occ. eigenvalues --   -1.03273  -1.01073  -1.00621  -0.94871  -0.91456
 Alpha  occ. eigenvalues --   -0.89115  -0.86703  -0.85093  -0.84867  -0.83507
 Alpha  occ. eigenvalues --   -0.81552  -0.80644  -0.78365  -0.76035  -0.75177
 Alpha  occ. eigenvalues --   -0.73468  -0.70481  -0.69735  -0.68330  -0.67759
 Alpha  occ. eigenvalues --   -0.66569  -0.65504  -0.64644  -0.64531  -0.63753
 Alpha  occ. eigenvalues --   -0.63214  -0.62584  -0.61863  -0.60756  -0.60552
 Alpha  occ. eigenvalues --   -0.60246  -0.60092  -0.59805  -0.59556  -0.58833
 Alpha  occ. eigenvalues --   -0.56960  -0.56014  -0.54098  -0.52894  -0.52611
 Alpha  occ. eigenvalues --   -0.52227  -0.51531  -0.50774  -0.50308  -0.48458
 Alpha  occ. eigenvalues --   -0.48142  -0.48065  -0.47733  -0.46386  -0.46089
 Alpha  occ. eigenvalues --   -0.45356  -0.45260  -0.44402  -0.43419  -0.42936
 Alpha  occ. eigenvalues --   -0.42829  -0.41963  -0.39514  -0.35734  -0.34477
 Alpha  occ. eigenvalues --   -0.29202
 Alpha virt. eigenvalues --    0.09547   0.11899   0.12895   0.16951   0.20657
 Alpha virt. eigenvalues --    0.21256   0.21775   0.22319   0.22977   0.23724
 Alpha virt. eigenvalues --    0.24571   0.25865   0.26789   0.26997   0.27145

 Mulliken charges:
               1
     1  C    0.920755
     2  C    0.284789
     3  C    0.015662
     4  C   -0.185914
     5  C   -0.320487
     6  C   -0.310270
     7  C   -0.310828
     8  C   -0.313479
     9  C   -0.314321
    10  C   -0.157131
    11  C   -0.361428
    12  C   -0.164115
    13  C   -0.245063
    14  N   -0.770878
    15  C    0.793263
    16  O   -0.654343
    17  C    0.030456
    18  N   -0.533001
    19  N   -0.838576
    20  C    0.691953
    21  N   -0.722910
    22  N   -0.968241
    23  C    0.406389
    24  C   -0.273127
    25  H    0.234013
    26  H    0.178167
    27  H    0.177032
    28  H    0.174368
    29  H    0.154611
    30  H    0.161600
    31  H    0.166058
    32  H    0.154019
    33  H    0.152531
    34  H    0.163882
    35  H    0.165438
    36  H    0.154413
    37  H    0.196992
    38  H    0.146517
    39  H    0.262207
    40  H    0.258691
    41  H    0.289080
    42  H    0.415363
    43  H    0.416082
    44  H    0.210695
    45  S    1.512055
    46  O   -0.703359
    47  O   -0.704154
    48  H    0.234383
    49  H    0.217347
    50  C   -0.704213
    51  H    0.217024
 Sum of Mulliken charges =  -0.00000

 Dipole moment (field-independent basis, Debye):
    X=             -4.8155    Y=              4.5907    Z=             -3.6130  Tot=              7.5708
 Quadrupole moment (field-independent basis, Debye-Ang):
   XX=           -228.4275   YY=             99.5996   ZZ=           -217.8645
   XY=           -105.8105   XZ=            -48.7810   YZ=            -63.3557

 ESP charges:
               1
     1  C    0.712244
     2  C    0.304890
     3  C    0.035656
     4  C    0.019662
     5  C   -0.091712
     6  C    0.016306
     7  C   -0.039424
     8  C   -0.036274
     9  C   -0.084651
    10  C    0.003635
    11  C   -0.165239
    12  C   -0.071147
    13  C   -0.273581
    14  N   -0.588427
    15  C    0.499208
    16  O   -0.315411
    17  C    0.034422
    18  N   -0.572251
    19  N   -0.605240
    20  C    0.613239
    21  N   -0.762272
    22  N   -0.557978
    23  C    0.460668
    24  C   -0.445717
    25  H    0.129510
    26  H    0.083823
    27  H    0.096177
    28  H    0.053057
    29  H    0.036029
    30  H    0.016613
    31  H    0.005974
    32  H    0.012797
    33  H    0.023008
    34  H    0.009263
    35  H    0.020143
    36  H    0.025079
    37  H    0.040270
    38  H    0.038777
    39  H    0.158313
    40  H    0.164887
    41  H    0.122707
    42  H    0.413840
    43  H    0.340671
    44  H    0.202402
    45  S    1.121350
    46  O   -0.597868
    47  O   -0.601304
    48  H    0.228633
    49  H    0.188790
    50  C   -0.607894
    51  H    0.184345
 Sum of ESP charges =   0.00000

 Normal termination of Gaussian 16 at Thu Jan 30 17:59:14 2025.
