 Gaussian 16, Revision A.03,

 ------------------------
 #P HF/6-31G* OPT(CalcFC)
 ------------------------

 --------------------
 Gaussian Calculation
 --------------------
 Symbolic Z-matrix:
 Charge =  0 Multiplicity = 1

 SCF Done:  E(RHF) =  -1040.90700476     A.U. after   16 cycles
 SCF Done:  E(RHF) =  -1040.96793502     A.U. after   14 cycles
 SCF Done:  E(RHF) =  -1041.00213010     A.U. after   16 cycles
 SCF Done:  E(RHF) =  -1041.00219932     A.U. after   17 cycles
 SCF Done:  E(RHF) =  -1041.00925860     A.U. after   15 cycles
 SCF Done:  E(RHF) =  -1041.00943992     A.U. after   14 cycles
 SCF Done:  E(RHF) =  -1041.01116188     A.U. after   13 cycles
 SCF Done:  E(RHF) =  -1041.01146343     A.U. after   13 cycles
 SCF Done:  E(RHF) =  -1041.01153330     A.U. after   12 cycles
 SCF Done:  E(RHF) =  -1041.01155090     A.U. after   12 cycles
 Optimization completed.
    -- Stationary point found.
 Normal termination of Gaussian 16 at Thu Jan 30 15:34:55 2025.

 --------------------------------------------------------
 #P PBE1PBE/6-31G* OPT(CalcFC) GEOM(ALLCheck) Guess(Read)
 --------------------------------------------------------

 Structure from the checkpoint file:  "binder_1h1q.antechamber.chk"
 --------------------
 Gaussian Calculation
 --------------------
 Charge =  0 Multiplicity = 1

 SCF Done:  E(RPBE1PBE) =  -1046.39020169     A.U. after   12 cycles

  Exact polarizability:   0.000   0.000   0.000   0.000   0.000   0.000
 Approx polarizability: 337.314 -11.782 415.493  23.168   3.560 191.980

 SCF Done:  E(RPBE1PBE) =  -1046.39556873     A.U. after   12 cycles
 SCF Done:  E(RPBE1PBE) =  -1046.39630900     A.U. after   14 cycles
 SCF Done:  E(RPBE1PBE) =  -1046.39654337     A.U. after   11 cycles
 SCF Done:  E(RPBE1PBE) =  -1046.39660751     A.U. after   11 cycles
 SCF Done:  E(RPBE1PBE) =  -1046.39661697     A.U. after   10 cycles
 SCF Done:  E(RPBE1PBE) =  -1046.39662058     A.U. after   10 cycles
 SCF Done:  E(RPBE1PBE) =  -1046.39662236     A.U. after    8 cycles
 SCF Done:  E(RPBE1PBE) =  -1046.39662241     A.U. after    7 cycles
 Optimization completed.
    -- Stationary point found.

                         Standard orientation:
 ---------------------------------------------------------------------
 Center     Atomic      Atomic             Coordinates (Angstroms)
 Number     Number       Type             X           Y           Z
 ---------------------------------------------------------------------
      1          6           0       -2.213397   -0.929776    0.029832
      2          6           0       -0.382030   -4.874737   -0.071227
      3          6           0        1.561540    0.399381   -0.305681
      4          6           0        3.063300    0.583697   -0.409880
      5          6           0        3.399872    2.069545   -0.566824
      6          6           0        4.907777    2.297163   -0.664278
      7          6           0        5.642692    1.692788    0.530862
      8          6           0        5.309259    0.210785    0.691408
      9          6           0        3.801819   -0.014389    0.790225
     10          6           0       -4.654284    3.363819    0.180090
     11          6           0       -3.531314    4.180000    0.065541
     12          6           0       -2.278209    3.584861   -0.037892
     13          6           0       -2.126664    2.201756   -0.029159
     14          7           0       -0.944102   -0.497514   -0.086995
     15          6           0        0.029598   -1.394888   -0.159463
     16          8           0        1.292203   -1.005401   -0.276147
     17          6           0       -0.263913   -2.766709   -0.114413
     18          7           0        0.495872   -3.917059   -0.162360
     19          7           0       -1.681209   -4.426431    0.034700
     20          6           0       -1.628560   -3.059876    0.009090
     21          7           0       -2.637849   -2.200007    0.084880
     22          7           0       -3.228346   -0.011655    0.105562
     23          6           0       -3.256644    1.381783    0.086068
     24          6           0       -4.520956    1.983416    0.190447
     25          1           0       -0.152040   -5.932628   -0.074712
     26          1           0        1.041440    0.847154   -1.161274
     27          1           0        1.166180    0.862027    0.607733
     28          1           0        3.398675    0.057515   -1.317057
     29          1           0        3.006920    2.619881    0.302188
     30          1           0        2.896063    2.480856   -1.451825
     31          1           0        5.120997    3.370410   -0.742802
     32          1           0        5.281606    1.835407   -1.589832
     33          1           0        5.348357    2.230128    1.444653
     34          1           0        6.725349    1.832652    0.421204
     35          1           0        5.809650   -0.199960    1.576985
     36          1           0        5.701386   -0.344556   -0.173298
     37          1           0        3.573591   -1.082812    0.869788
     38          1           0        3.422964    0.460526    1.709084
     39          1           0       -5.645265    3.802457    0.262396
     40          1           0       -3.633091    5.261202    0.057182
     41          1           0       -1.390241    4.205727   -0.128195
     42          1           0       -1.149424    1.746731   -0.110232
     43          1           0       -2.518247   -4.982315    0.116482
     44          1           0       -4.126764   -0.465644    0.191222
     45          1           0       -5.405601    1.355411    0.280506
 ---------------------------------------------------------------------

 1\1\GINC-BUMBU\FOpt\RPBE1PBE\6-31G(d)\C18H21N5O1\PB777\30-Jan-2025\0\\
 #P PBE1PBE/6-31G* OPT(CalcFC) GEOM(ALLCheck) Guess(Read)\\Gaussian Cal
 culation\\0,1\C,1.6014932065,29.1283599399,6.8948951865\C,-1.539179928
 1,31.7489312028,8.3766547402\C,-0.2007042239,26.3405161785,9.155291739
 3\C,-1.0723700897,25.5370473774,10.1012034393\C,-0.6256713616,24.07210
 89385,10.109670602\C,-1.4750634937,23.230856827,11.0614649911\C,-1.472
 9184807,23.8118697075,12.4743165092\C,-1.9173185797,25.273299948,12.47
 03232498\C,-1.066126989,26.1126670519,11.5196498798\C,5.3129004829,26.

 Normal termination of Gaussian 16 at Thu Jan 30 16:57:24 2025.
 Gaussian 16:  ES64L-G16RevA.03 25-Dec-2016

 ----------------------------------------------------------------------
 #P HF/6-31G* GEOM(AllCheck) Guess(Read) NoSymm Pop=mk IOp(6/33=2) GFIn
 put GFPrint
 ----------------------------------------------------------------------

 Structure from the checkpoint file:  "binder_1h1q.antechamber.chk"
 --------------------
 Gaussian Calculation
 --------------------
 Charge =  0 Multiplicity = 1

 SCF Done:  E(RHF) =  -1041.00597979     A.U. after   14 cycles

 Alpha  occ. eigenvalues --  -20.60490 -15.63076 -15.59642 -15.56401 -15.55756
 Alpha  occ. eigenvalues --  -15.55728 -11.36411 -11.36286 -11.32126 -11.31568
 Alpha  occ. eigenvalues --  -11.28365 -11.28308 -11.24594 -11.23386 -11.23122
 Alpha  occ. eigenvalues --  -11.22824 -11.22510 -11.22122 -11.22104 -11.21812
 Alpha  occ. eigenvalues --  -11.21799 -11.21507 -11.21365 -11.21154  -1.44131
 Alpha  occ. eigenvalues --   -1.36665  -1.32396  -1.23596  -1.20648  -1.16828
 Alpha  occ. eigenvalues --   -1.13340  -1.12519  -1.05296  -1.02888  -1.00813
 Alpha  occ. eigenvalues --   -1.00257  -0.99213  -0.94017  -0.88819  -0.87394
 Alpha  occ. eigenvalues --   -0.84020  -0.83186  -0.82890  -0.81637  -0.80280
 Alpha  occ. eigenvalues --   -0.77216  -0.75440  -0.73883  -0.71533  -0.67796
 Alpha  occ. eigenvalues --   -0.67349  -0.67184  -0.65937  -0.65468  -0.63640
 Alpha  occ. eigenvalues --   -0.62904  -0.61456  -0.60110  -0.59766  -0.59525
 Alpha  occ. eigenvalues --   -0.59360  -0.58908  -0.58276  -0.57960  -0.55250
 Alpha  occ. eigenvalues --   -0.52984  -0.52515  -0.52105  -0.51120  -0.50582
 Alpha  occ. eigenvalues --   -0.49890  -0.49479  -0.48475  -0.48075  -0.47184
 Alpha  occ. eigenvalues --   -0.45098  -0.44743  -0.44310  -0.43408  -0.42959
 Alpha  occ. eigenvalues --   -0.42402  -0.40743  -0.38368  -0.33074  -0.32327
 Alpha  occ. eigenvalues --   -0.27131
 Alpha virt. eigenvalues --    0.12381   0.14384   0.15138   0.19354   0.22001
 Alpha virt. eigenvalues --    0.22128   0.22631   0.23330   0.24242   0.25050
 Alpha virt. eigenvalues --    0.26159   0.27893   0.28087   0.29536   0.30122

 Mulliken charges:
               1
     1  C    0.919723
     2  C    0.282285
     3  C    0.017811
     4  C   -0.185435
     5  C   -0.319500
     6  C   -0.309641
     7  C   -0.309930
     8  C   -0.313115
     9  C   -0.313707
    10  C   -0.185441
    11  C   -0.223372
    12  C   -0.191377
    13  C   -0.244492
    14  N   -0.768898
    15  C    0.789211
    16  O   -0.657357
    17  C    0.025578
    18  N   -0.534765
    19  N   -0.839932
    20  C    0.691753
    21  N   -0.727841
    22  N   -0.965991
    23  C    0.383773
    24  C   -0.269735
    25  H    0.229586
    26  H    0.180322
    27  H    0.175413
    28  H    0.173463
    29  H    0.151374
    30  H    0.162620
    31  H    0.163066
    32  H    0.154169
    33  H    0.150298
    34  H    0.162354
    35  H    0.163967
    36  H    0.154247
    37  H    0.198371
    38  H    0.144778
    39  H    0.201258
    40  H    0.196813
    41  H    0.198086
    42  H    0.273295
    43  H    0.412709
    44  H    0.410148
    45  H    0.194057
 Sum of Mulliken charges =  -0.00000

 Dipole moment (field-independent basis, Debye):
    X=              0.4532    Y=              1.7712    Z=             -0.8653  Tot=              2.0226
 Quadrupole moment (field-independent basis, Debye-Ang):
   XX=           -142.2177   YY=            -14.2945   ZZ=           -156.2795
   XY=             10.8133   XZ=              1.1139   YZ=            -18.6794

 ESP charges:
               1
     1  C    0.788741
     2  C    0.310831
     3  C    0.029550
     4  C    0.021742
     5  C   -0.091928
     6  C    0.017603
     7  C   -0.025389
     8  C   -0.042113
     9  C   -0.047802
    10  C   -0.033388
    11  C   -0.254727
    12  C   -0.056818
    13  C   -0.289417
    14  N   -0.613406
    15  C    0.498459
    16  O   -0.305309
    17  C    0.002467
    18  N   -0.568428
    19  N   -0.593622
    20  C    0.600813
    21  N   -0.781298
    22  N   -0.631945
    23  C    0.472104
    24  C   -0.417238
    25  H    0.121699
    26  H    0.093481
    27  H    0.091230
    28  H    0.046038
    29  H    0.031110
    30  H    0.017226
    31  H    0.001887
    32  H    0.010820
    33  H    0.016397
    34  H    0.004383
    35  H    0.016448
    36  H    0.023772
    37  H    0.029325
    38  H    0.028812
    39  H    0.133685
    40  H    0.151191
    41  H    0.127961
    42  H    0.118820
    43  H    0.407903
    44  H    0.352151
    45  H    0.186182
 Sum of ESP charges =   0.00000

 Normal termination of Gaussian 16 at Thu Jan 30 16:59:09 2025.
