 Gaussian 16, Revision A.03,

 ---------------------------------------------------
 #P HF/6-31G* OPT(CalcFC) GEOM(ALLCheck) Guess(Read)
 ---------------------------------------------------

 Structure from the checkpoint file:  "binder_22.antechamber.chk"
 --------------------
 Gaussian Calculation
 --------------------
 Charge =  0 Multiplicity = 1

 SCF Done:  E(RHF) =  -1477.55069567     A.U. after    1 cycles
 SCF Done:  E(RHF) =  -1477.55350483     A.U. after   12 cycles
 SCF Done:  E(RHF) =  -1477.55352226     A.U. after   12 cycles
 SCF Done:  E(RHF) =  -1477.55352624     A.U. after   11 cycles
 SCF Done:  E(RHF) =  -1477.55354181     A.U. after   13 cycles
 SCF Done:  E(RHF) =  -1477.43558613     A.U. after   15 cycles
 SCF Done:  E(RHF) =  -1477.55302034     A.U. after   15 cycles
 SCF Done:  E(RHF) =  -1477.55357713     A.U. after   12 cycles
 SCF Done:  E(RHF) =  -1477.55237603     A.U. after   15 cycles
 SCF Done:  E(RHF) =  -1477.55314842     A.U. after   14 cycles
 Optimization completed.
    -- Stationary point found.
 Normal termination of Gaussian 16 at Tue Feb  4 10:16:51 2025.

 --------------------------------------------------------
 #P PBE1PBE/6-31G* OPT(CalcFC) GEOM(ALLCheck) Guess(Read)
 --------------------------------------------------------

 Structure from the checkpoint file:  "binder_22.antechamber.chk"
 --------------------
 Gaussian Calculation
 --------------------
 Charge =  0 Multiplicity = 1

  Exact polarizability:   0.000   0.000   0.000   0.000   0.000   0.000
 Approx polarizability: 385.851 -37.517 431.812 -54.963 -13.105 251.763

 SCF Done:  E(RPBE1PBE) =  -1483.69796330     A.U. after   11 cycles
 SCF Done:  E(RPBE1PBE) =  -1483.69795832     A.U. after   10 cycles
 SCF Done:  E(RPBE1PBE) =  -1483.69796642     A.U. after   10 cycles
 SCF Done:  E(RPBE1PBE) =  -1483.69796300     A.U. after   10 cycles
 SCF Done:  E(RPBE1PBE) =  -1483.69797141     A.U. after   11 cycles
 SCF Done:  E(RPBE1PBE) =  -1483.69797215     A.U. after    7 cycles
 SCF Done:  E(RPBE1PBE) =  -1483.69797213     A.U. after    8 cycles
 SCF Done:  E(RPBE1PBE) =  -1483.69797224     A.U. after    7 cycles
 SCF Done:  E(RPBE1PBE) =  -1483.69797221     A.U. after    6 cycles
 Optimization completed.
    -- Stationary point found.

                         Standard orientation:
 ---------------------------------------------------------------------
 Center     Atomic      Atomic             Coordinates (Angstroms)
 Number     Number       Type             X           Y           Z
 ---------------------------------------------------------------------
      1          6           0       -1.802885   -1.892305    0.039990
      2          6           0        0.780177   -5.380767   -0.226497
      3          6           0        1.618151    0.184454   -0.266689
      4          6           0        3.051295    0.676580   -0.319028
      5          6           0        3.075663    2.202616   -0.450682
      6          6           0        4.505380    2.740876   -0.487589
      7          6           0        5.307640    2.282508    0.728957
      8          6           0        5.286721    0.760913    0.861339
      9          6           0        3.857186    0.225017    0.901717
     10          6           0       -5.009289    1.833639    0.506822
     11          6           0       -4.068210    2.855408    0.399528
     12          6           0       -2.727916    2.519415    0.214146
     13          6           0       -2.324512    1.184822    0.140666
     14          7           0       -0.649109   -1.209737   -0.068994
     15          6           0        0.485689   -1.888313   -0.177519
     16          8           0        1.641233   -1.247069   -0.280954
     17          6           0        0.472975   -3.291949   -0.185072
     18          7           0        1.447157   -4.263485   -0.281406
     19          7           0       -0.581227   -5.206962   -0.099277
     20          6           0       -0.803836   -3.857990   -0.069710
     21          7           0       -1.964591   -3.221832    0.045396
     22          7           0       -2.979912   -1.197198    0.162854
     23          6           0       -3.274913    0.161986    0.231624
     24          6           0       -4.624458    0.505542    0.418111
     25          1           0        1.217637   -6.369940   -0.273188
     26          1           0        1.040815    0.539098   -1.129822
     27          1           0        1.111338    0.531128    0.642342
     28          1           0        3.517825    0.245377   -1.218373
     29          1           0        2.541293    2.646196    0.403359
     30          1           0        2.531557    2.512486   -1.353395
     31          1           0        4.492023    3.836193   -0.547030
     32          1           0        5.000789    2.383630   -1.402350
     33          1           0        4.874778    2.729944    1.635896
     34          1           0        6.340132    2.647535    0.662246
     35          1           0        5.830992    0.447733    1.760803
     36          1           0        5.815886    0.315210    0.006173
     37          1           0        3.854700   -0.868862    0.962345
     38          1           0        3.356193    0.594969    1.810111
     39          1           0       -4.364316    3.898040    0.452905
     40         16           0       -1.507159    3.817649    0.122576
     41          1           0       -1.280685    0.928801    0.024604
     42          1           0       -1.288626   -5.922516   -0.036148
     43          1           0       -3.769005   -1.822426    0.246279
     44          1           0       -5.371361   -0.281844    0.498578
     45          1           0       -6.058578    2.075745    0.652659
     46          6           0       -0.947726    3.628089   -1.593767
     47          1           0       -0.167776    4.377539   -1.755834
     48          1           0       -0.524037    2.635259   -1.767475
     49          1           0       -1.765896    3.806128   -2.296338
 ---------------------------------------------------------------------

 Normal termination of Gaussian 16 at Tue Feb  4 10:29:41 2025.
 Gaussian 16:  ES64L-G16RevA.03 25-Dec-2016

 ----------------------------------------------------------------------
 #P HF/6-31G* GEOM(AllCheck) Guess(Read) NoSymm Pop=mk IOp(6/33=2) GFIn
 put GFPrint
 ----------------------------------------------------------------------

 Structure from the checkpoint file:  "binder_22.antechamber.chk"
 --------------------
 Gaussian Calculation
 --------------------
 Charge =  0 Multiplicity = 1

 SCF Done:  E(RHF) =  -1477.54716134     A.U. after   14 cycles

 Alpha  occ. eigenvalues --  -91.93496 -20.60672 -15.63308 -15.60110 -15.56599
 Alpha  occ. eigenvalues --  -15.56052 -15.56048 -11.36734 -11.36543 -11.32386
 Alpha  occ. eigenvalues --  -11.31777 -11.29089 -11.28384 -11.26305 -11.25173
 Alpha  occ. eigenvalues --  -11.24861 -11.24077 -11.23650 -11.22970 -11.22687
 Alpha  occ. eigenvalues --  -11.22490 -11.21977 -11.21699 -11.21403 -11.21301
 Alpha  occ. eigenvalues --  -11.21114  -8.94456  -6.62757  -6.62617  -6.62413
 Alpha  occ. eigenvalues --   -1.44322  -1.36920  -1.32749  -1.24065  -1.20909
 Alpha  occ. eigenvalues --   -1.17109  -1.14745  -1.12476  -1.06494  -1.04951
 Alpha  occ. eigenvalues --   -1.02935  -1.00319  -1.00134  -0.98975  -0.94106
 Alpha  occ. eigenvalues --   -0.89483  -0.87690  -0.87125  -0.84218  -0.83191
 Alpha  occ. eigenvalues --   -0.82394  -0.80721  -0.80001  -0.76689  -0.75318
 Alpha  occ. eigenvalues --   -0.74171  -0.70940  -0.67882  -0.67672  -0.67484
 Alpha  occ. eigenvalues --   -0.65875  -0.65694  -0.63780  -0.63058  -0.61663
 Alpha  occ. eigenvalues --   -0.60984  -0.60077  -0.59739  -0.59482  -0.59276
 Alpha  occ. eigenvalues --   -0.59128  -0.58628  -0.57953  -0.55391  -0.55126
 Alpha  occ. eigenvalues --   -0.53338  -0.52493  -0.52423  -0.51784  -0.51039
 Alpha  occ. eigenvalues --   -0.49974  -0.49721  -0.48890  -0.47984  -0.47162
 Alpha  occ. eigenvalues --   -0.45495  -0.45115  -0.44814  -0.43681  -0.43220
 Alpha  occ. eigenvalues --   -0.42904  -0.42372  -0.41025  -0.38622  -0.35669
 Alpha  occ. eigenvalues --   -0.32841  -0.31887  -0.27607
 Alpha virt. eigenvalues --    0.11997   0.12543   0.14298   0.18616   0.19805
 Alpha virt. eigenvalues --    0.21467   0.21842   0.21933   0.23205   0.23517
 Alpha virt. eigenvalues --    0.24645   0.25576   0.27377   0.27732   0.28324

 Mulliken charges:
               1
     1  C    0.920931
     2  C    0.282719
     3  C    0.014754
     4  C   -0.185164
     5  C   -0.322566
     6  C   -0.309741
     7  C   -0.310227
     8  C   -0.313029
     9  C   -0.314366
    10  C   -0.181678
    11  C   -0.213442
    12  C   -0.186358
    13  C   -0.232920
    14  N   -0.772718
    15  C    0.792692
    16  O   -0.657057
    17  C    0.025393
    18  N   -0.534011
    19  N   -0.839639
    20  C    0.691396
    21  N   -0.726701
    22  N   -0.967616
    23  C    0.391207
    24  C   -0.265798
    25  H    0.230563
    26  H    0.174212
    27  H    0.184627
    28  H    0.172525
    29  H    0.162996
    30  H    0.158396
    31  H    0.163402
    32  H    0.152702
    33  H    0.152288
    34  H    0.161978
    35  H    0.163941
    36  H    0.153582
    37  H    0.196168
    38  H    0.147398
    39  H    0.218029
    40  S    0.147687
    41  H    0.290132
    42  H    0.413228
    43  H    0.410861
    44  H    0.199609
    45  H    0.206912
    46  C   -0.628950
    47  H    0.191815
    48  H    0.192468
    49  H    0.197369
 Sum of Mulliken charges =  -0.00000

 Dipole moment (field-independent basis, Debye):
    X=             -0.4758    Y=              2.3361    Z=             -2.6130  Tot=              3.5372
 Quadrupole moment (field-independent basis, Debye-Ang):
   XX=           -164.4438   YY=             -7.7557   ZZ=           -200.9914
   XY=            -11.7070   XZ=             -9.7610   YZ=            -63.4027

 ESP charges:
               1
     1  C    0.639210
     2  C    0.296167
     3  C   -0.064842
     4  C   -0.054823
     5  C    0.188964
     6  C   -0.114399
     7  C    0.043578
     8  C   -0.103371
     9  C   -0.003664
    10  C   -0.157538
    11  C   -0.129835
    12  C    0.190440
    13  C   -0.204908
    14  N   -0.525052
    15  C    0.479924
    16  O   -0.269255
    17  C    0.048073
    18  N   -0.580184
    19  N   -0.584572
    20  C    0.568046
    21  N   -0.738806
    22  N   -0.451506
    23  C    0.265687
    24  C   -0.332470
    25  H    0.129347
    26  H    0.121462
    27  H    0.091747
    28  H    0.047231
    29  H   -0.025691
    30  H   -0.059376
    31  H    0.019607
    32  H    0.023044
    33  H    0.000484
    34  H    0.000186
    35  H    0.023046
    36  H    0.037357
    37  H    0.025834
    38  H    0.027887
    39  H    0.113474
    40  S   -0.248568
    41  H    0.097214
    42  H    0.407712
    43  H    0.312890
    44  H    0.187213
    45  H    0.164841
    46  C   -0.284466
    47  H    0.172906
    48  H    0.098787
    49  H    0.110967
 Sum of ESP charges =   0.00000

 Normal termination of Gaussian 16 at Tue Feb  4 10:31:38 2025.
