 Gaussian 16, Revision A.03,

 ------------------------
 #P HF/6-31G* OPT(CalcFC)
 ------------------------

 --------------------
 Gaussian Calculation
 --------------------
 Symbolic Z-matrix:
 Charge =  0 Multiplicity = 1

 SCF Done:  E(RHF) =  -1756.92292252     A.U. after   16 cycles
 SCF Done:  E(RHF) =  -1757.00048637     A.U. after   16 cycles
 SCF Done:  E(RHF) =  -1757.05178309     A.U. after   15 cycles
 SCF Done:  E(RHF) =  -1757.05886071     A.U. after   14 cycles
 SCF Done:  E(RHF) =  -1757.01263221     A.U. after   16 cycles
 SCF Done:  E(RHF) =  -1757.07054864     A.U. after   15 cycles
 SCF Done:  E(RHF) =  -1757.07857371     A.U. after   15 cycles
 SCF Done:  E(RHF) =  -1757.07673436     A.U. after   16 cycles
 SCF Done:  E(RHF) =  -1757.07748889     A.U. after   15 cycles
 SCF Done:  E(RHF) =  -1757.07941176     A.U. after   12 cycles
 SCF Done:  E(RHF) =  -1757.08623449     A.U. after    7 cycles
 SCF Done:  E(RHF) =  -1757.08623451     A.U. after    6 cycles
 Optimization completed.
    -- Stationary point found.
 Normal termination of Gaussian 16 at Thu Jan 30 18:14:54 2025.

 --------------------------------------------------------
 #P PBE1PBE/6-31G* OPT(CalcFC) GEOM(ALLCheck) Guess(Read)
 --------------------------------------------------------

 Structure from the checkpoint file:  "binder_32.antechamber.chk"
 --------------------
 Gaussian Calculation
 --------------------
 Charge =  0 Multiplicity = 1

 SCF Done:  E(RPBE1PBE) =  -1764.35714406     A.U. after   13 cycles

  Exact polarizability:   0.000   0.000   0.000   0.000   0.000   0.000
 Approx polarizability: 482.101 -37.952 443.565  -2.577  -8.663 230.836

 SCF Done:  E(RPBE1PBE) =  -1764.36526787     A.U. after   12 cycles
 SCF Done:  E(RPBE1PBE) =  -1764.36543883     A.U. after   11 cycles
 SCF Done:  E(RPBE1PBE) =  -1764.36544723     A.U. after    9 cycles
 SCF Done:  E(RPBE1PBE) =  -1764.36544789     A.U. after    9 cycles
 SCF Done:  E(RPBE1PBE) =  -1764.36544793     A.U. after    7 cycles
 SCF Done:  E(RPBE1PBE) =  -1764.36544794     A.U. after    6 cycles
 Optimization completed.
    -- Stationary point found.

                         Standard orientation:
 ---------------------------------------------------------------------
 Center     Atomic      Atomic             Coordinates (Angstroms)
 Number     Number       Type             X           Y           Z
 ---------------------------------------------------------------------
      1          6           0        0.870334   -2.657275    0.040197
      2          6           0        5.092933   -3.677462   -0.067896
      3          6           0        2.173014    1.123393   -0.337659
      4          6           0        2.961126    2.414569   -0.441707
      5          6           0        2.002651    3.600574   -0.586690
      6          6           0        2.758233    4.925267   -0.683837
      7          6           0        3.697125    5.121833    0.505033
      8          6           0        4.653874    3.940481    0.653601
      9          6           0        3.896671    2.617676    0.752806
     10          6           0       -4.000241   -1.875224    0.219609
     11          6           0       -3.921379   -0.495693    0.042026
     12          6           0       -2.670174    0.104752   -0.119450
     13          6           0       -1.506991   -0.652855   -0.098758
     14          7           0        1.316249   -1.397185   -0.096575
     15          6           0        2.625565   -1.191638   -0.178316
     16          8           0        3.103960    0.036473   -0.311404
     17          6           0        3.515752   -2.275293   -0.123633
     18          7           0        4.887942   -2.395682   -0.176737
     19          7           0        3.935286   -4.414887    0.054825
     20          6           0        2.898537   -3.524939    0.021425
     21          7           0        1.596410   -3.777781    0.107925
     22          7           0       -0.485407   -2.881601    0.128549
     23          6           0       -1.583881   -2.038629    0.096055
     24          6           0       -2.847574   -2.638562    0.250376
     25          1           0        6.064639   -4.154646   -0.069509
     26          1           0        1.497021    0.996413   -1.192114
     27          1           0        1.568692    1.099993    0.578573
     28          1           0        3.574876    2.354935   -1.353754
     29          1           0        1.334339    3.629980    0.288397
     30          1           0        1.360287    3.464128   -1.467027
     31          1           0        2.047557    5.757931   -0.753240
     32          1           0        3.344665    4.936349   -1.614100
     33          1           0        3.100332    5.221361    1.423854
     34          1           0        4.258308    6.057895    0.394433
     35          1           0        5.292718    4.074253    1.535099
     36          1           0        5.326433    3.907023   -0.216041
     37          1           0        4.594399    1.776198    0.824136
     38          1           0        3.295911    2.611249    1.676118
     39          1           0       -0.546630   -0.178950   -0.247642
     40          1           0        3.851738   -5.415055    0.152266
     41          1           0       -0.687749   -3.865163    0.241738
     42          1           0       -2.917904   -3.714049    0.394695
     43         16           0       -5.399277    0.488900    0.076323
     44          8           0       -5.262118    1.468270    1.144176
     45          8           0       -6.526549   -0.430360    0.019887
     46          1           0       -5.583643    0.736444   -2.142887
     47          7           0       -5.421072    1.348783   -1.349230
     48          1           0       -4.560528    1.884108   -1.446342
     49          8           0       -2.605781    1.450044   -0.374576
     50          6           0       -2.151523    2.243610    0.720355
     51          1           0       -2.086099    3.267214    0.346822
     52          1           0       -2.868554    2.194823    1.545383
     53          1           0       -1.161084    1.913572    1.055786
     54          1           0       -4.977568   -2.332854    0.336994
 ---------------------------------------------------------------------

 Normal termination of Gaussian 16 at Thu Jan 30 20:01:43 2025.
 Gaussian 16:  ES64L-G16RevA.03 25-Dec-2016

 ----------------------------------------------------------------------
 #P HF/6-31G* GEOM(AllCheck) Guess(Read) NoSymm Pop=mk IOp(6/33=2) GFIn
 put GFPrint
 ----------------------------------------------------------------------

 Structure from the checkpoint file:  "binder_32.antechamber.chk"
 --------------------
 Gaussian Calculation
 --------------------
 Charge =  0 Multiplicity = 1

 SCF Done:  E(RHF) =  -1757.07718765     A.U. after   14 cycles

 Alpha  occ. eigenvalues --  -92.20519 -20.61818 -20.60436 -20.54700 -20.54349
 Alpha  occ. eigenvalues --  -15.64360 -15.61987 -15.59557 -15.57571 -15.57467
 Alpha  occ. eigenvalues --  -15.57455 -11.38139 -11.37759 -11.33536 -11.32877
 Alpha  occ. eigenvalues --  -11.32798 -11.32034 -11.29555 -11.28942 -11.26978
 Alpha  occ. eigenvalues --  -11.26512 -11.26077 -11.25038 -11.24226 -11.23454
 Alpha  occ. eigenvalues --  -11.22984 -11.22478 -11.22134 -11.22043 -11.21970
 Alpha  occ. eigenvalues --   -9.17536  -6.86154  -6.86134  -6.86047  -1.45516
 Alpha  occ. eigenvalues --   -1.45157  -1.42271  -1.38089  -1.34232  -1.33027
 Alpha  occ. eigenvalues --   -1.25869  -1.22125  -1.20746  -1.18317  -1.16417
 Alpha  occ. eigenvalues --   -1.13387  -1.07092  -1.04837  -1.04000  -1.02425
 Alpha  occ. eigenvalues --   -1.01009  -0.95313  -0.95094  -0.92379  -0.89331
 Alpha  occ. eigenvalues --   -0.86879  -0.85233  -0.84606  -0.83895  -0.82928
 Alpha  occ. eigenvalues --   -0.81211  -0.79010  -0.76465  -0.75816  -0.74293
 Alpha  occ. eigenvalues --   -0.72776  -0.71721  -0.70600  -0.68805  -0.68582
 Alpha  occ. eigenvalues --   -0.67690  -0.66917  -0.66060  -0.65714  -0.65172
 Alpha  occ. eigenvalues --   -0.64786  -0.64031  -0.62866  -0.62498  -0.61974
 Alpha  occ. eigenvalues --   -0.60915  -0.60477  -0.60226  -0.60132  -0.59837
 Alpha  occ. eigenvalues --   -0.59124  -0.56443  -0.54988  -0.53982  -0.53292
 Alpha  occ. eigenvalues --   -0.53243  -0.52144  -0.51806  -0.51643  -0.50674
 Alpha  occ. eigenvalues --   -0.49619  -0.48860  -0.48845  -0.48226  -0.48049
 Alpha  occ. eigenvalues --   -0.47316  -0.46452  -0.45843  -0.45713  -0.45171
 Alpha  occ. eigenvalues --   -0.44646  -0.43954  -0.43769  -0.43255  -0.42276
 Alpha  occ. eigenvalues --   -0.39773  -0.35354  -0.34527  -0.29484
 Alpha virt. eigenvalues --    0.09562   0.11822   0.12830   0.16859   0.19923
 Alpha virt. eigenvalues --    0.20523   0.21082   0.21946   0.22342   0.22399
 Alpha virt. eigenvalues --    0.24236   0.25137   0.26489   0.26947   0.26984

 Mulliken charges:
               1
     1  C    0.921911
     2  C    0.285465
     3  C    0.015893
     4  C   -0.186342
     5  C   -0.320784
     6  C   -0.310330
     7  C   -0.310749
     8  C   -0.313863
     9  C   -0.313951
    10  C   -0.160008
    11  C   -0.423301
    12  C    0.471758
    13  C   -0.296226
    14  N   -0.774852
    15  C    0.794895
    16  O   -0.654326
    17  C    0.030392
    18  N   -0.533196
    19  N   -0.838394
    20  C    0.692406
    21  N   -0.721351
    22  N   -0.970732
    23  C    0.414047
    24  C   -0.277740
    25  H    0.234930
    26  H    0.180995
    27  H    0.172379
    28  H    0.175930
    29  H    0.148203
    30  H    0.164796
    31  H    0.165461
    32  H    0.155862
    33  H    0.150998
    34  H    0.165197
    35  H    0.166268
    36  H    0.155506
    37  H    0.198459
    38  H    0.144406
    39  H    0.298725
    40  H    0.416049
    41  H    0.417587
    42  H    0.212130
    43  S    1.651207
    44  O   -0.689082
    45  O   -0.689265
    46  H    0.390593
    47  N   -0.968165
    48  H    0.418820
    49  O   -0.698301
    50  C   -0.193223
    51  H    0.183878
    52  H    0.217266
    53  H    0.158570
    54  H    0.273198
 Sum of Mulliken charges =  -0.00000

 Dipole moment (field-independent basis, Debye):
    X=             -6.6390    Y=              5.1763    Z=             -1.3528  Tot=              8.5264
 Quadrupole moment (field-independent basis, Debye-Ang):
   XX=           -258.0820   YY=            118.5302   ZZ=           -196.6480
   XY=           -149.8825   XZ=            -51.6033   YZ=             -9.0339

 ESP charges:
               1
     1  C    0.713911
     2  C    0.308646
     3  C   -0.113974
     4  C    0.062699
     5  C   -0.096197
     6  C    0.006256
     7  C   -0.045704
     8  C   -0.013401
     9  C   -0.056842
    10  C    0.078504
    11  C   -0.365059
    12  C    0.394394
    13  C   -0.385905
    14  N   -0.619080
    15  C    0.525836
    16  O   -0.290163
    17  C    0.064297
    18  N   -0.586935
    19  N   -0.592908
    20  C    0.565702
    21  N   -0.740954
    22  N   -0.544932
    23  C    0.478076
    24  C   -0.504618
    25  H    0.129871
    26  H    0.129977
    27  H    0.138518
    28  H    0.048363
    29  H    0.034660
    30  H    0.021602
    31  H    0.009271
    32  H    0.014612
    33  H    0.018608
    34  H    0.011802
    35  H    0.012926
    36  H    0.016167
    37  H    0.028422
    38  H    0.028246
    39  H    0.164363
    40  H    0.413821
    41  H    0.337060
    42  H    0.214966
    43  S    1.231430
    44  O   -0.569378
    45  O   -0.582884
    46  H    0.410690
    47  N   -0.928504
    48  H    0.432665
    49  O   -0.412184
    50  C    0.025803
    51  H    0.086119
    52  H    0.104980
    53  H    0.031216
    54  H    0.155139
 Sum of ESP charges =   0.00000

 Normal termination of Gaussian 16 at Thu Jan 30 20:04:25 2025.
