 Gaussian 16, Revision A.03,

 ------------------------
 #P HF/6-31G* OPT(CalcFC)
 ------------------------

 --------------------
 Gaussian Calculation
 --------------------
 Symbolic Z-matrix:
 Charge =  0 Multiplicity = 1

 SCF Done:  E(RHF) =  -3610.21262319     A.U. after   16 cycles
 SCF Done:  E(RHF) =  -3610.27412128     A.U. after   14 cycles
 SCF Done:  E(RHF) =  -3610.30823096     A.U. after   15 cycles
 SCF Done:  E(RHF) =  -3610.31430802     A.U. after   14 cycles
 SCF Done:  E(RHF) =  -3610.23328258     A.U. after   15 cycles
 SCF Done:  E(RHF) =  -3610.31647422     A.U. after   15 cycles
 SCF Done:  E(RHF) =  -3610.18384837     A.U. after   15 cycles
 SCF Done:  E(RHF) =  -3610.31722028     A.U. after   13 cycles
 SCF Done:  E(RHF) =  -3610.31828605     A.U. after   15 cycles
 SCF Done:  E(RHF) =  -3610.31853194     A.U. after   13 cycles
 SCF Done:  E(RHF) =  -3610.31878629     A.U. after    8 cycles
 Optimization completed.
    -- Stationary point found.
 Normal termination of Gaussian 16 at Thu Jan 30 15:44:36 2025.

 --------------------------------------------------------
 #P PBE1PBE/6-31G* OPT(CalcFC) GEOM(ALLCheck) Guess(Read)
 --------------------------------------------------------

 Structure from the checkpoint file:  "binder_17.antechamber.chk"
 --------------------
 Gaussian Calculation
 --------------------
 Charge =  0 Multiplicity = 1

 SCF Done:  E(RPBE1PBE) =  -3617.17154455     A.U. after   13 cycles

  Exact polarizability:   0.000   0.000   0.000   0.000   0.000   0.000
 Approx polarizability: 418.938 -38.607 411.862  -8.619 -19.512 202.957

 SCF Done:  E(RPBE1PBE) =  -3617.17675727     A.U. after   12 cycles
 SCF Done:  E(RPBE1PBE) =  -3617.17726471     A.U. after   14 cycles
 SCF Done:  E(RPBE1PBE) =  -3617.17740640     A.U. after   11 cycles
 SCF Done:  E(RPBE1PBE) =  -3617.17743741     A.U. after   11 cycles
 SCF Done:  E(RPBE1PBE) =  -3617.17744221     A.U. after   10 cycles
 SCF Done:  E(RPBE1PBE) =  -3617.17744244     A.U. after    9 cycles
 SCF Done:  E(RPBE1PBE) =  -3617.17744237     A.U. after    8 cycles
 Optimization completed.
    -- Stationary point found.

                         Standard orientation:
 ---------------------------------------------------------------------
 Center     Atomic      Atomic             Coordinates (Angstroms)
 Number     Number       Type             X           Y           Z
 ---------------------------------------------------------------------
      1          6           0        0.389836    1.948703   -0.012995
      2          6           0       -2.909695    4.780270   -0.026321
      3          6           0       -2.503624   -0.823848   -0.299283
      4          6           0       -3.797019   -1.610172   -0.391927
      5          6           0       -3.493163   -3.101287   -0.564940
      6          6           0       -4.774502   -3.929220   -0.653648
      7          6           0       -5.678423   -3.691927    0.554776
      8          6           0       -5.982501   -2.205585    0.732341
      9          6           0       -4.700459   -1.380173    0.822263
     10          6           0        4.373158   -0.951776    0.024438
     11          6           0        3.701352   -2.164236   -0.076202
     12          6           0        2.312400   -2.129547   -0.142619
     13          6           0        1.602073   -0.934964   -0.110973
     14          7           0       -0.586665    1.029413   -0.111975
     15          6           0       -1.846850    1.442998   -0.154525
     16          8           0       -2.836808    0.567099   -0.253975
     17          6           0       -2.145615    2.813130   -0.095898
     18          7           0       -3.314112    3.545295   -0.114324
     19          7           0       -1.539679    4.910111    0.049660
     20          6           0       -1.022796    3.645022    0.006482
     21          7           0        0.253549    3.278869    0.051639
     22          7           0        1.698509    1.533542    0.031042
     23          6           0        2.295568    0.278690   -0.009333
     24          6           0        3.698172    0.256714    0.058536
     25          1           0       -3.557182    5.647748   -0.011240
     26          1           0       -1.857574   -1.010113   -1.165857
     27          1           0       -1.940404   -1.089116    0.604731
     28          1           0       -4.331420   -1.261757   -1.289296
     29          1           0       -2.897930   -3.447943    0.294150
     30          1           0       -2.875696   -3.261249   -1.459056
     31          1           0       -4.527353   -4.994142   -0.744477
     32          1           0       -5.316613   -3.654632   -1.570304
     33          1           0       -5.178222   -4.068927    1.459221
     34          1           0       -6.608841   -4.263900    0.451001
     35          1           0       -6.596224   -2.045066    1.627233
     36          1           0       -6.579390   -1.853263   -0.121712
     37          1           0       -4.931923   -0.313450    0.914511
     38          1           0       -4.147721   -1.665037    1.731503
     39         35           0        6.263877   -0.942047    0.117954
     40          1           0        4.249067   -3.099361   -0.101371
     41          1           0        1.763058   -3.064032   -0.221743
     42          1           0        0.522771   -0.923975   -0.163576
     43          1           0       -1.006523    5.762670    0.123443
     44          1           0        2.329419    2.319181    0.105255
     45          1           0        4.258806    1.183828    0.137668
 ---------------------------------------------------------------------

 Normal termination of Gaussian 16 at Thu Jan 30 17:13:02 2025.
 Gaussian 16:  ES64L-G16RevA.03 25-Dec-2016

 ----------------------------------------------------------------------
 #P HF/6-31G* GEOM(AllCheck) Guess(Read) NoSymm Pop=mk IOp(6/33=2) GFIn
 put GFPrint
 ----------------------------------------------------------------------

 Structure from the checkpoint file:  "binder_17.antechamber.chk"
 --------------------
 Gaussian Calculation
 --------------------
 Charge =  0 Multiplicity = 1

 SCF Done:  E(RHF) =  -3610.31339204     A.U. after   14 cycles

 Alpha  occ. eigenvalues -- -490.06193 -64.47346 -58.61295 -58.61111 -58.61099
 Alpha  occ. eigenvalues --  -20.60994 -15.63549 -15.60563 -15.56830 -15.56417
 Alpha  occ. eigenvalues --  -15.56372 -11.37080 -11.36848 -11.32651 -11.32021
 Alpha  occ. eigenvalues --  -11.29964 -11.29946 -11.28785 -11.25146 -11.24689
 Alpha  occ. eigenvalues --  -11.24528 -11.23840 -11.23072 -11.22865 -11.22445
 Alpha  occ. eigenvalues --  -11.22059 -11.21746 -11.21619 -11.21459  -9.72185
 Alpha  occ. eigenvalues --   -7.47108  -7.46230  -7.46229  -3.21000  -3.20573
 Alpha  occ. eigenvalues --   -3.20571  -3.19556  -3.19556  -1.44662  -1.37198
 Alpha  occ. eigenvalues --   -1.33115  -1.24575  -1.21204  -1.17425  -1.15910
 Alpha  occ. eigenvalues --   -1.12856  -1.06494  -1.05526  -1.03539  -1.00755
 Alpha  occ. eigenvalues --   -1.00503  -0.96502  -0.94442  -0.89561  -0.88118
 Alpha  occ. eigenvalues --   -0.84534  -0.84253  -0.83476  -0.81557  -0.80635
 Alpha  occ. eigenvalues --   -0.77546  -0.75798  -0.74302  -0.71380  -0.68855
 Alpha  occ. eigenvalues --   -0.68371  -0.67851  -0.66383  -0.66010  -0.64127
 Alpha  occ. eigenvalues --   -0.63326  -0.62346  -0.61288  -0.60422  -0.60176
 Alpha  occ. eigenvalues --   -0.59846  -0.59543  -0.59064  -0.57009  -0.55651
 Alpha  occ. eigenvalues --   -0.53778  -0.53036  -0.52800  -0.52265  -0.51469
 Alpha  occ. eigenvalues --   -0.51055  -0.50074  -0.48596  -0.48359  -0.47607
 Alpha  occ. eigenvalues --   -0.46769  -0.45509  -0.45180  -0.43922  -0.43280
 Alpha  occ. eigenvalues --   -0.42747  -0.41895  -0.41353  -0.40922  -0.38900
 Alpha  occ. eigenvalues --   -0.33817  -0.32618  -0.28078
 Alpha virt. eigenvalues --    0.11549   0.13058   0.13811   0.17203   0.18454
 Alpha virt. eigenvalues --    0.21405   0.21767   0.22373   0.23725   0.24077
 Alpha virt. eigenvalues --    0.24839   0.27281   0.27560   0.27827   0.29136

 Mulliken charges:
               1
     1  C    0.921784
     2  C    0.283577
     3  C    0.017311
     4  C   -0.185679
     5  C   -0.319739
     6  C   -0.309878
     7  C   -0.310193
     8  C   -0.313427
     9  C   -0.313878
    10  C    0.011969
    11  C   -0.213715
    12  C   -0.190250
    13  C   -0.240113
    14  N   -0.771046
    15  C    0.790760
    16  O   -0.656014
    17  C    0.027842
    18  N   -0.534253
    19  N   -0.839267
    20  C    0.692162
    21  N   -0.725191
    22  N   -0.969294
    23  C    0.394384
    24  C   -0.264524
    25  H    0.231702
    26  H    0.180003
    27  H    0.174482
    28  H    0.174381
    29  H    0.151033
    30  H    0.162421
    31  H    0.163822
    32  H    0.154765
    33  H    0.150605
    34  H    0.163313
    35  H    0.164794
    36  H    0.154747
    37  H    0.198431
    38  H    0.144923
    39  Br  -0.120222
    40  H    0.225281
    41  H    0.209466
    42  H    0.281501
    43  H    0.414225
    44  H    0.414056
    45  H    0.222942
 Sum of Mulliken charges =  -0.00000

 Dipole moment (field-independent basis, Debye):
    X=             -1.5137    Y=              1.9241    Z=              0.5799  Tot=              2.5159
 Quadrupole moment (field-independent basis, Debye-Ang):
   XX=           -177.7487   YY=            -21.3600   ZZ=           -158.2557
   XY=            -41.8467   XZ=             -2.5087   YZ=             20.2700

 ESP charges:
               1
     1  C    0.806480
     2  C    0.324036
     3  C    0.039176
     4  C    0.017205
     5  C   -0.089748
     6  C    0.019090
     7  C   -0.030956
     8  C   -0.045349
     9  C   -0.046578
    10  C   -0.065588
    11  C   -0.093896
    12  C   -0.150342
    13  C   -0.207170
    14  N   -0.621015
    15  C    0.512444
    16  O   -0.305464
    17  C   -0.014156
    18  N   -0.567176
    19  N   -0.598928
    20  C    0.614722
    21  N   -0.789833
    22  N   -0.649654
    23  C    0.381578
    24  C   -0.222375
    25  H    0.118728
    26  H    0.091269
    27  H    0.086739
    28  H    0.046578
    29  H    0.029713
    30  H    0.015699
    31  H    0.002500
    32  H    0.012020
    33  H    0.018830
    34  H    0.006900
    35  H    0.018585
    36  H    0.025365
    37  H    0.028400
    38  H    0.029351
    39  Br  -0.078092
    40  H    0.135198
    41  H    0.150191
    42  H    0.110944
    43  H    0.410350
    44  H    0.371773
    45  H    0.152453
 Sum of ESP charges =   0.00000

 Normal termination of Gaussian 16 at Thu Jan 30 17:15:05 2025.
