 Gaussian 16, Revision A.03,

 ------------------------
 #P HF/6-31G* OPT(CalcFC)
 ------------------------

 --------------------
 Gaussian Calculation
 --------------------
 Symbolic Z-matrix:
 Charge =  0 Multiplicity = 1

 SCF Done:  E(RHF) =  -1643.08344519     A.U. after   16 cycles
 SCF Done:  E(RHF) =  -1643.14862577     A.U. after   14 cycles
 SCF Done:  E(RHF) =  -1643.18946289     A.U. after   16 cycles
 SCF Done:  E(RHF) =  -1643.19110837     A.U. after   17 cycles
 SCF Done:  E(RHF) =  -1643.13235549     A.U. after   16 cycles
 SCF Done:  E(RHF) =  -1643.19855757     A.U. after   14 cycles
 SCF Done:  E(RHF) =  -1643.13200945     A.U. after   15 cycles
 SCF Done:  E(RHF) =  -1643.19750611     A.U. after   15 cycles
 SCF Done:  E(RHF) =  -1643.19886596     A.U. after    8 cycles
 SCF Done:  E(RHF) =  -1643.20100038     A.U. after   14 cycles
 SCF Done:  E(RHF) =  -1643.20179264     A.U. after    7 cycles
 Optimization completed.
    -- Stationary point found.
 Normal termination of Gaussian 16 at Thu Jan 30 16:12:18 2025.

 --------------------------------------------------------
 #P PBE1PBE/6-31G* OPT(CalcFC) GEOM(ALLCheck) Guess(Read)
 --------------------------------------------------------

 Structure from the checkpoint file:  "binder_1oiu.antechamber.chk"
 --------------------
 Gaussian Calculation
 --------------------
 Charge =  0 Multiplicity = 1

 SCF Done:  E(RPBE1PBE) =  -1649.95707215     A.U. after   13 cycles

  Exact polarizability:   0.000   0.000   0.000   0.000   0.000   0.000
 Approx polarizability: 420.196 -37.290 443.808   0.483  16.566 220.076

 SCF Done:  E(RPBE1PBE) =  -1649.96475766     A.U. after   12 cycles
 SCF Done:  E(RPBE1PBE) =  -1649.96534535     A.U. after   14 cycles
 SCF Done:  E(RPBE1PBE) =  -1649.96552353     A.U. after   11 cycles
 SCF Done:  E(RPBE1PBE) =  -1649.96556367     A.U. after   11 cycles
 SCF Done:  E(RPBE1PBE) =  -1649.96557773     A.U. after    9 cycles
 SCF Done:  E(RPBE1PBE) =  -1649.96557810     A.U. after    9 cycles
 SCF Done:  E(RPBE1PBE) =  -1649.96557817     A.U. after    7 cycles
 Optimization completed.
    -- Stationary point found.

                         Standard orientation:
 ---------------------------------------------------------------------
 Center     Atomic      Atomic             Coordinates (Angstroms)
 Number     Number       Type             X           Y           Z
 ---------------------------------------------------------------------
      1          6           0       -0.143380   -1.990607   -0.043751
      2          6           0        3.219064   -4.744028    0.005017
      3          6           0        2.691888    0.847903   -0.297306
      4          6           0        3.969647    1.660966   -0.373683
      5          6           0        3.637420    3.143501   -0.567405
      6          6           0        4.902566    3.997314   -0.641428
      7          6           0        5.789026    3.791268    0.585518
      8          6           0        6.120914    2.313552    0.784091
      9          6           0        4.855052    1.462126    0.859172
     10          6           0       -4.184311    0.830916   -0.108832
     11          6           0       -3.533272    2.054412   -0.247735
     12          6           0       -2.143911    2.044631   -0.294483
     13          6           0       -1.417627    0.860985   -0.211880
     14          7           0        0.811795   -1.048334   -0.127931
     15          6           0        2.082528   -1.432680   -0.148160
     16          8           0        3.053570   -0.535265   -0.233902
     17          6           0        2.411055   -2.795426   -0.080247
     18          7           0        3.596176   -3.499993   -0.077841
     19          7           0        1.851494   -4.905707    0.058555
     20          6           0        1.306493   -3.653350    0.004489
     21          7           0        0.021312   -3.316019    0.026995
     22          7           0       -1.463544   -1.605109   -0.020618
     23          6           0       -2.086308   -0.366302   -0.088820
     24          6           0       -3.488924   -0.366123   -0.034916
     25          1           0        3.886238   -5.596141    0.031911
     26          1           0        2.058513    1.012730   -1.177549
     27          1           0        2.106862    1.108589    0.594171
     28          1           0        4.527731    1.315423   -1.257564
     29          1           0        3.019527    3.485996    0.277318
     30          1           0        3.033360    3.281581   -1.474243
     31          1           0        4.634824    5.055754   -0.747798
     32          1           0        5.466772    3.725113   -1.545309
     33          1           0        5.264734    4.166799    1.476854
     34          1           0        6.708978    4.381606    0.492483
     35          1           0        6.721102    2.174959    1.691695
     36          1           0        6.740776    1.965275   -0.055071
     37          1           0        5.107295    0.401535    0.966653
     38          1           0        4.279780    1.744350    1.755218
     39          1           0       -4.103357    2.972456   -0.345137
     40          1           0       -1.605154    2.981498   -0.408386
     41          1           0       -0.337310    0.866960   -0.253328
     42          1           0        1.337146   -5.770743    0.121291
     43          1           0       -2.078503   -2.404901    0.038001
     44          1           0       -4.044469   -1.298047    0.036497
     45         16           0       -5.964463    0.791890    0.015467
     46          8           0       -6.391757   -0.569380   -0.266343
     47          8           0       -6.476911    1.949670   -0.697834
     48          1           0       -6.001064    0.313443    2.226816
     49          7           0       -6.336636    1.054225    1.620120
     50          1           0       -6.063281    1.977555    1.939838
 ---------------------------------------------------------------------

 Normal termination of Gaussian 16 at Thu Jan 30 17:57:50 2025.
 Gaussian 16:  ES64L-G16RevA.03 25-Dec-2016

 ----------------------------------------------------------------------
 #P HF/6-31G* GEOM(AllCheck) Guess(Read) NoSymm Pop=mk IOp(6/33=2) GFIn
 put GFPrint
 ----------------------------------------------------------------------

 Structure from the checkpoint file:  "binder_1oiu.antechamber.chk"
 --------------------
 Gaussian Calculation
 --------------------
 Charge =  0 Multiplicity = 1

 SCF Done:  E(RHF) =  -1643.19371394     A.U. after   15 cycles

 Alpha  occ. eigenvalues --  -92.21347 -20.61538 -20.55553 -20.55453 -15.64014
 Alpha  occ. eigenvalues --  -15.61360 -15.60967 -15.57266 -15.57085 -15.56975
 Alpha  occ. eigenvalues --  -11.37719 -11.37424 -11.33175 -11.32474 -11.31074
 Alpha  occ. eigenvalues --  -11.29336 -11.28325 -11.26279 -11.25878 -11.25685
 Alpha  occ. eigenvalues --  -11.25673 -11.24905 -11.23294 -11.22849 -11.22393
 Alpha  occ. eigenvalues --  -11.22071 -11.21958 -11.21855  -9.18398  -6.87006
 Alpha  occ. eigenvalues --   -6.87003  -6.86901  -1.46041  -1.45223  -1.37722
 Alpha  occ. eigenvalues --   -1.34156  -1.33779  -1.25404  -1.21760  -1.21721
 Alpha  occ. eigenvalues --   -1.17987  -1.16682  -1.13256  -1.06653  -1.05171
 Alpha  occ. eigenvalues --   -1.04239  -1.01539  -1.00895  -0.94976  -0.91491
 Alpha  occ. eigenvalues --   -0.89439  -0.88726  -0.85274  -0.84862  -0.83849
 Alpha  occ. eigenvalues --   -0.82174  -0.81102  -0.78851  -0.76237  -0.75550
 Alpha  occ. eigenvalues --   -0.74337  -0.72289  -0.70272  -0.69756  -0.69505
 Alpha  occ. eigenvalues --   -0.68399  -0.67409  -0.66597  -0.65628  -0.64641
 Alpha  occ. eigenvalues --   -0.63811  -0.63768  -0.62210  -0.61440  -0.61259
 Alpha  occ. eigenvalues --   -0.60782  -0.60267  -0.60010  -0.59706  -0.56427
 Alpha  occ. eigenvalues --   -0.55663  -0.54341  -0.53173  -0.53084  -0.52898
 Alpha  occ. eigenvalues --   -0.51858  -0.51357  -0.50554  -0.50330  -0.49387
 Alpha  occ. eigenvalues --   -0.48877  -0.48741  -0.47910  -0.46832  -0.46196
 Alpha  occ. eigenvalues --   -0.45818  -0.45616  -0.44972  -0.44405  -0.43665
 Alpha  occ. eigenvalues --   -0.43132  -0.41943  -0.39446  -0.36278  -0.34256
 Alpha  occ. eigenvalues --   -0.28901
 Alpha virt. eigenvalues --    0.09523   0.11277   0.12641   0.17359   0.20015
 Alpha virt. eigenvalues --    0.20768   0.21403   0.21850   0.22488   0.23135
 Alpha virt. eigenvalues --    0.24123   0.25219   0.26513   0.27204   0.27432

 Mulliken charges:
               1
     1  C    0.921775
     2  C    0.284682
     3  C    0.017459
     4  C   -0.185968
     5  C   -0.319854
     6  C   -0.310176
     7  C   -0.310424
     8  C   -0.313717
     9  C   -0.313844
    10  C   -0.309984
    11  C   -0.208354
    12  C   -0.194357
    13  C   -0.224097
    14  N   -0.775194
    15  C    0.792015
    16  O   -0.654767
    17  C    0.029279
    18  N   -0.533854
    19  N   -0.838733
    20  C    0.692546
    21  N   -0.722575
    22  N   -0.969875
    23  C    0.391425
    24  C   -0.260451
    25  H    0.233671
    26  H    0.179288
    27  H    0.172449
    28  H    0.175895
    29  H    0.149758
    30  H    0.162741
    31  H    0.164628
    32  H    0.155811
    33  H    0.150299
    34  H    0.164484
    35  H    0.165458
    36  H    0.155659
    37  H    0.198594
    38  H    0.144095
    39  H    0.252931
    40  H    0.216007
    41  H    0.290270
    42  H    0.415716
    43  H    0.416999
    44  H    0.261123
    45  S    1.615970
    46  O   -0.684144
    47  O   -0.680212
    48  H    0.393966
    49  N   -0.949166
    50  H    0.394753
 Sum of Mulliken charges =  -0.00000

 Dipole moment (field-independent basis, Debye):
    X=             -2.0739    Y=              2.9082    Z=              5.8305  Tot=              6.8376
 Quadrupole moment (field-independent basis, Debye-Ang):
   XX=           -191.3894   YY=             14.5658   ZZ=           -126.1389
   XY=            -48.2678   XZ=             30.0699   YZ=            159.5001

 ESP charges:
               1
     1  C    0.797945
     2  C    0.335527
     3  C   -0.017753
     4  C    0.049430
     5  C   -0.083059
     6  C    0.010866
     7  C   -0.037305
     8  C   -0.049952
     9  C   -0.046043
    10  C   -0.014763
    11  C   -0.267274
    12  C   -0.057362
    13  C   -0.246518
    14  N   -0.645026
    15  C    0.565126
    16  O   -0.299077
    17  C   -0.051204
    18  N   -0.561962
    19  N   -0.592713
    20  C    0.610409
    21  N   -0.781920
    22  N   -0.626446
    23  C    0.446948
    24  C   -0.392390
    25  H    0.115649
    26  H    0.108613
    27  H    0.085536
    28  H    0.041372
    29  H    0.027742
    30  H    0.013067
    31  H    0.005432
    32  H    0.013725
    33  H    0.019507
    34  H    0.011900
    35  H    0.020956
    36  H    0.026734
    37  H    0.025504
    38  H    0.030961
    39  H    0.189773
    40  H    0.139235
    41  H    0.128037
    42  H    0.410095
    43  H    0.361792
    44  H    0.215302
    45  S    1.196519
    46  O   -0.568273
    47  O   -0.563735
    48  H    0.404869
    49  N   -0.911005
    50  H    0.405207
 Sum of ESP charges =   0.00000

 Normal termination of Gaussian 16 at Thu Jan 30 18:00:15 2025.
