 Gaussian 16, Revision A.03,

 ------------------------
 #P HF/6-31G* OPT(CalcFC)
 ------------------------

 --------------------
 Gaussian Calculation
 --------------------
 Symbolic Z-matrix:
 Charge =  0 Multiplicity = 1

 SCF Done:  E(RHF) =  -1499.80557600     A.U. after   16 cycles
 SCF Done:  E(RHF) =  -1499.86704263     A.U. after   14 cycles
 SCF Done:  E(RHF) =  -1499.90117153     A.U. after   15 cycles
 SCF Done:  E(RHF) =  -1499.90723019     A.U. after   15 cycles
 SCF Done:  E(RHF) =  -1499.82695958     A.U. after   15 cycles
 SCF Done:  E(RHF) =  -1499.90940120     A.U. after   14 cycles
 SCF Done:  E(RHF) =  -1499.77735829     A.U. after   15 cycles
 SCF Done:  E(RHF) =  -1499.91014874     A.U. after   13 cycles
 SCF Done:  E(RHF) =  -1499.91122392     A.U. after   15 cycles
 SCF Done:  E(RHF) =  -1499.91147476     A.U. after   13 cycles
 Optimization completed.
    -- Stationary point found.
 Normal termination of Gaussian 16 at Thu Jan 30 15:39:43 2025.

 --------------------------------------------------------
 #P PBE1PBE/6-31G* OPT(CalcFC) GEOM(ALLCheck) Guess(Read)
 --------------------------------------------------------

 Structure from the checkpoint file:  "binder_1h1r.antechamber.chk"
 --------------------
 Gaussian Calculation
 --------------------
 Charge =  0 Multiplicity = 1

 SCF Done:  E(RPBE1PBE) =  -1505.82912602     A.U. after   12 cycles

  Exact polarizability:   0.000   0.000   0.000   0.000   0.000   0.000
 Approx polarizability: 394.111 -37.757 410.674 -13.666 -15.211 192.556

 SCF Done:  E(RPBE1PBE) =  -1505.83433595     A.U. after   12 cycles
 SCF Done:  E(RPBE1PBE) =  -1505.83478320     A.U. after   14 cycles
 SCF Done:  E(RPBE1PBE) =  -1505.83494738     A.U. after   11 cycles
 SCF Done:  E(RPBE1PBE) =  -1505.83498072     A.U. after   11 cycles
 SCF Done:  E(RPBE1PBE) =  -1505.83499432     A.U. after    9 cycles
 SCF Done:  E(RPBE1PBE) =  -1505.83499535     A.U. after    9 cycles
 SCF Done:  E(RPBE1PBE) =  -1505.83499561     A.U. after    7 cycles
 SCF Done:  E(RPBE1PBE) =  -1505.83499561     A.U. after    6 cycles
 Optimization completed.
    -- Stationary point found.

                         Standard orientation:
 ---------------------------------------------------------------------
 Center     Atomic      Atomic             Coordinates (Angstroms)
 Number     Number       Type             X           Y           Z
 ---------------------------------------------------------------------
      1          6           0        1.178638    1.751976   -0.004641
      2          6           0       -1.828808    4.891994   -0.035317
      3          6           0       -1.970090   -0.724764   -0.314124
      4          6           0       -3.334843   -1.380545   -0.399355
      5          6           0       -3.180262   -2.893307   -0.582075
      6          6           0       -4.537554   -3.590836   -0.661892
      7          6           0       -5.402485   -3.272338    0.556347
      8          6           0       -5.558258   -1.764335    0.743163
      9          6           0       -4.200742   -1.069024    0.823983
     10          6           0        4.859648   -1.523997    0.076116
     11          6           0        4.072384   -2.664719   -0.035778
     12          6           0        2.694826   -2.493710   -0.121796
     13          6           0        2.104164   -1.235598   -0.098597
     14          7           0        0.117778    0.932454   -0.111267
     15          6           0       -1.095786    1.467037   -0.160458
     16          8           0       -2.165932    0.692012   -0.266335
     17          6           0       -1.259839    2.859724   -0.101972
     18          7           0       -2.351224    3.702386   -0.126727
     19          7           0       -0.453135    4.887554    0.048903
     20          6           0       -0.061870    3.578070    0.007765
     21          7           0        1.172346    3.089119    0.060474
     22          7           0        2.440272    1.211243    0.048219
     23          6           0        2.912218   -0.096240    0.014862
     24          6           0        4.304601   -0.254841    0.102449
     25          1           0       -2.388671    5.818492   -0.023396
     26          1           0       -1.350355   -0.972032   -1.184717
     27          1           0       -1.430158   -1.044806    0.586283
     28          1           0       -3.839899   -0.976594   -1.290400
     29          1           0       -2.613928   -3.301539    0.269471
     30          1           0       -2.589895   -3.108026   -1.482989
     31          1           0       -4.397163   -4.674402   -0.759734
     32          1           0       -5.058570   -3.259518   -1.572013
     33          1           0       -4.932915   -3.700879    1.454232
     34          1           0       -6.385242   -3.750256    0.459479
     35          1           0       -6.144897   -1.549245    1.644731
     36          1           0       -6.125780   -1.350931   -0.103491
     37          1           0       -4.325669    0.014826    0.922415
     38          1           0       -3.670499   -1.410938    1.726938
     39         17           0        6.591167   -1.683991    0.186988
     40          1           0        4.527163   -3.648756   -0.054459
     41          1           0        2.057619   -3.369681   -0.210201
     42          1           0        1.032029   -1.119106   -0.166659
     43          1           0        0.160169    5.684027    0.126613
     44          1           0        3.143698    1.931904    0.129229
     45          1           0        4.952667    0.612646    0.191243
 ---------------------------------------------------------------------

 Normal termination of Gaussian 16 at Thu Jan 30 17:06:23 2025.
 Gaussian 16:  ES64L-G16RevA.03 25-Dec-2016

 ----------------------------------------------------------------------
 #P HF/6-31G* GEOM(AllCheck) Guess(Read) NoSymm Pop=mk IOp(6/33=2) GFIn
 put GFPrint
 ----------------------------------------------------------------------

 Structure from the checkpoint file:  "binder_1h1r.antechamber.chk"
 --------------------
 Gaussian Calculation
 --------------------
 Charge =  0 Multiplicity = 1

 SCF Done:  E(RHF) =  -1499.90635296     A.U. after   14 cycles

 Alpha  occ. eigenvalues -- -104.82338 -20.60987 -15.63546 -15.60558 -15.56827
 Alpha  occ. eigenvalues --  -15.56409 -15.56369 -11.37075 -11.36842 -11.32647
 Alpha  occ. eigenvalues --  -11.32018 -11.30401 -11.29952 -11.28778 -11.25141
 Alpha  occ. eigenvalues --  -11.24691 -11.24447 -11.23765 -11.22979 -11.22860
 Alpha  occ. eigenvalues --  -11.22442 -11.22057 -11.21745 -11.21618 -11.21460
 Alpha  occ. eigenvalues --  -10.55684  -8.02624  -8.02291  -8.02288  -1.44654
 Alpha  occ. eigenvalues --   -1.37194  -1.33109  -1.24589  -1.21199  -1.18016
 Alpha  occ. eigenvalues --   -1.17261  -1.12859  -1.10875  -1.05850  -1.03546
 Alpha  occ. eigenvalues --   -1.00914  -1.00523  -0.99023  -0.94456  -0.89610
 Alpha  occ. eigenvalues --   -0.88121  -0.84555  -0.84320  -0.83485  -0.81752
 Alpha  occ. eigenvalues --   -0.80653  -0.77687  -0.75798  -0.74348  -0.71627
 Alpha  occ. eigenvalues --   -0.68910  -0.68362  -0.67849  -0.66528  -0.66044
 Alpha  occ. eigenvalues --   -0.64116  -0.63343  -0.62595  -0.61389  -0.60431
 Alpha  occ. eigenvalues --   -0.60264  -0.59845  -0.59537  -0.59082  -0.58427
 Alpha  occ. eigenvalues --   -0.55749  -0.54251  -0.53672  -0.52802  -0.52670
 Alpha  occ. eigenvalues --   -0.51580  -0.51273  -0.50171  -0.49899  -0.48449
 Alpha  occ. eigenvalues --   -0.48368  -0.47457  -0.45540  -0.45185  -0.45048
 Alpha  occ. eigenvalues --   -0.44021  -0.43667  -0.43269  -0.42724  -0.41349
 Alpha  occ. eigenvalues --   -0.38895  -0.33928  -0.32852  -0.28082
 Alpha virt. eigenvalues --    0.11594   0.13147   0.13927   0.18505   0.19843
 Alpha virt. eigenvalues --    0.21425   0.21770   0.22392   0.23729   0.24274
 Alpha virt. eigenvalues --    0.24953   0.27551   0.27700   0.27882   0.29131

 Mulliken charges:
               1
     1  C    0.921260
     2  C    0.283562
     3  C    0.017154
     4  C   -0.185633
     5  C   -0.319668
     6  C   -0.309905
     7  C   -0.310230
     8  C   -0.313355
     9  C   -0.313927
    10  C   -0.120450
    11  C   -0.206860
    12  C   -0.187548
    13  C   -0.242153
    14  N   -0.770764
    15  C    0.790752
    16  O   -0.656040
    17  C    0.027795
    18  N   -0.534235
    19  N   -0.839281
    20  C    0.692169
    21  N   -0.725288
    22  N   -0.968623
    23  C    0.395313
    24  C   -0.254134
    25  H    0.231678
    26  H    0.179692
    27  H    0.174937
    28  H    0.174531
    29  H    0.150986
    30  H    0.162472
    31  H    0.163808
    32  H    0.154773
    33  H    0.150586
    34  H    0.163306
    35  H    0.164771
    36  H    0.154781
    37  H    0.198245
    38  H    0.144934
    39  Cl  -0.005784
    40  H    0.225246
    41  H    0.209054
    42  H    0.281034
    43  H    0.414194
    44  H    0.413806
    45  H    0.223040
 Sum of Mulliken charges =  -0.00000

 Dipole moment (field-independent basis, Debye):
    X=             -1.5524    Y=              1.9186    Z=              0.5927  Tot=              2.5382
 Quadrupole moment (field-independent basis, Debye-Ang):
   XX=           -172.9159   YY=            -15.7819   ZZ=           -152.6238
   XY=            -42.8983   XZ=             -2.2436   YZ=             20.6535

 ESP charges:
               1
     1  C    0.775917
     2  C    0.327110
     3  C    0.044341
     4  C    0.026325
     5  C   -0.096774
     6  C    0.026771
     7  C   -0.033816
     8  C   -0.040985
     9  C   -0.056247
    10  C    0.077176
    11  C   -0.151224
    12  C   -0.135804
    13  C   -0.241105
    14  N   -0.614902
    15  C    0.514830
    16  O   -0.308762
    17  C   -0.013757
    18  N   -0.569194
    19  N   -0.604123
    20  C    0.620454
    21  N   -0.786949
    22  N   -0.605877
    23  C    0.397979
    24  C   -0.320339
    25  H    0.118097
    26  H    0.087831
    27  H    0.083789
    28  H    0.044332
    29  H    0.030410
    30  H    0.016629
    31  H    0.000722
    32  H    0.010459
    33  H    0.019293
    34  H    0.006715
    35  H    0.018035
    36  H    0.024598
    37  H    0.031067
    38  H    0.031042
    39  Cl  -0.121112
    40  H    0.144155
    41  H    0.152462
    42  H    0.122620
    43  H    0.411295
    44  H    0.359698
    45  H    0.176815
 Sum of ESP charges =   0.00000

 Normal termination of Gaussian 16 at Thu Jan 30 17:08:18 2025.
