 Gaussian 16, Revision A.03,

 ------------------------
 #P HF/6-31G* OPT(CalcFC)
 ------------------------

 --------------------
 Gaussian Calculation
 --------------------
 Symbolic Z-matrix:
 Charge =  0 Multiplicity = 1

 SCF Done:  E(RHF) =  -1208.68419650     A.U. after   16 cycles
 SCF Done:  E(RHF) =  -1208.74646103     A.U. after   16 cycles
 SCF Done:  E(RHF) =  -1208.78674192     A.U. after   16 cycles
 SCF Done:  E(RHF) =  -1208.79228868     A.U. after   16 cycles
 SCF Done:  E(RHF) =  -1208.70866919     A.U. after   15 cycles
 SCF Done:  E(RHF) =  -1208.79675124     A.U. after   14 cycles
 SCF Done:  E(RHF) =  -1208.79530067     A.U. after   15 cycles
 SCF Done:  E(RHF) =  -1208.79842900     A.U. after   14 cycles
 SCF Done:  E(RHF) =  -1208.79898403     A.U. after   14 cycles
 SCF Done:  E(RHF) =  -1208.79915943     A.U. after   12 cycles
 SCF Done:  E(RHF) =  -1208.79942382     A.U. after    9 cycles
 SCF Done:  E(RHF) =  -1208.79942393     A.U. after    7 cycles
 SCF Done:  E(RHF) =  -1208.79942397     A.U. after    7 cycles
 SCF Done:  E(RHF) =  -1208.79942398     A.U. after    7 cycles
 Optimization completed.
    -- Stationary point found.
 Normal termination of Gaussian 16 at Thu Jan 30 16:09:17 2025.

 --------------------------------------------------------
 #P PBE1PBE/6-31G* OPT(CalcFC) GEOM(ALLCheck) Guess(Read)
 --------------------------------------------------------

 Structure from the checkpoint file:  "binder_1oiy.antechamber.chk"
 --------------------
 Gaussian Calculation
 --------------------
 Charge =  0 Multiplicity = 1

 SCF Done:  E(RPBE1PBE) =  -1214.91793703     A.U. after   13 cycles

  Exact polarizability:   0.000   0.000   0.000   0.000   0.000   0.000
 Approx polarizability: 453.281 -50.761 424.366 -17.595 -13.005 188.755

 SCF Done:  E(RPBE1PBE) =  -1214.92402411     A.U. after   12 cycles
 SCF Done:  E(RPBE1PBE) =  -1214.92407621     A.U. after   11 cycles
 SCF Done:  E(RPBE1PBE) =  -1214.92407660     A.U. after    8 cycles
 SCF Done:  E(RPBE1PBE) =  -1214.92407663     A.U. after    6 cycles
 Optimization completed.
    -- Stationary point found.

                         Standard orientation:
 ---------------------------------------------------------------------
 Center     Atomic      Atomic             Coordinates (Angstroms)
 Number     Number       Type             X           Y           Z
 ---------------------------------------------------------------------
      1          6           0       -0.351179   -2.401304    0.019159
      2          6           0        3.565004   -4.286526   -0.089249
      3          6           0        1.723139    1.025625   -0.272307
      4          6           0        2.765985    2.120618   -0.386639
      5          6           0        2.081172    3.482366   -0.536482
      6          6           0        3.100790    4.615131   -0.646582
      7          6           0        4.065980    4.615459    0.537558
      8          6           0        4.750143    3.258489    0.691785
      9          6           0        3.729198    2.127904    0.803180
     10          6           0       -4.961643   -0.640915    0.150925
     11          6           0       -4.616579    0.710681    0.057569
     12          6           0       -3.261274    1.042888   -0.003849
     13          6           0       -2.269162    0.071484    0.005964
     14          7           0        0.353391   -1.260471   -0.081485
     15          6           0        1.676503   -1.334729   -0.150364
     16          8           0        2.405223   -0.232135   -0.252748
     17          6           0        2.319062   -2.582157   -0.117164
     18          7           0        3.635979   -2.988124   -0.165320
     19          7           0        2.276484   -4.765900    0.006625
     20          6           0        1.450538   -3.676422   -0.009273
     21          7           0        0.124035   -3.651893    0.061594
     22          7           0       -1.722206   -2.337773    0.089132
     23          6           0       -2.624288   -1.283171    0.077631
     24          6           0       -3.987943   -1.620366    0.154015
     25          1           0        4.414264   -4.957845   -0.097440
     26          1           0        1.027575    1.043483   -1.120155
     27          1           0        1.135062    1.130755    0.648594
     28          1           0        3.349164    1.926826   -1.300195
     29          1           0        1.438231    3.658839    0.339891
     30          1           0        1.421023    3.479859   -1.414382
     31          1           0        2.583537    5.579763   -0.719838
     32          1           0        3.671865    4.494718   -1.578739
     33          1           0        3.508317    4.845446    1.457557
     34          1           0        4.812902    5.410065    0.418138
     35          1           0        5.407042    3.259262    1.570238
     36          1           0        5.396197    3.077065   -0.179726
     37          1           0        4.231954    1.157532    0.878127
     38          1           0        3.145220    2.255343    1.728403
     39          1           0       -6.013747   -0.899206    0.221158
     40          1           0       -2.954652    2.086099   -0.022935
     41          1           0       -1.223666    0.343204   -0.032366
     42          1           0        1.982529   -5.727794    0.076984
     43          1           0       -2.127900   -3.260587    0.160484
     44          1           0       -4.275995   -2.667919    0.219163
     45          6           0       -5.724148    1.707578    0.052677
     46          8           0       -6.857166    1.422797    0.410276
     47          1           0       -6.184354    3.595445   -0.480742
     48          7           0       -5.396386    2.977136   -0.351916
     49          1           0       -4.615894    3.117729   -0.974190
 ---------------------------------------------------------------------

 1\1\GINC-BUMBU\FOpt\RPBE1PBE\6-31G(d)\C19H22N6O2\PB777\30-Jan-2025\0\\
 #P PBE1PBE/6-31G* OPT(CalcFC) GEOM(ALLCheck) Guess(Read)\\Gaussian Cal
 culation\\0,1\C,1.6339734475,29.0823574958,7.0312279544\C,-1.764329896
 5,31.6135535811,8.0043054532\C,-0.2311297973,26.3652285939,9.326917425
 5\C,-1.1600939255,25.5745400391,10.2277204508\C,-0.6417998483,24.14206
 69708,10.3863777459\C,-1.5483408657,23.3138865078,11.2958816911\C,-1.7
 353263188,23.9819563001,12.6569469198\C,-2.250672884,25.4116674587,12.
 5034052022\C,-1.3422904035,26.238088217,11.5952038742\C,5.630781688,26

 Normal termination of Gaussian 16 at Thu Jan 30 17:33:14 2025.
 Gaussian 16:  ES64L-G16RevA.03 25-Dec-2016

 ----------------------------------------------------------------------
 #P HF/6-31G* GEOM(AllCheck) Guess(Read) NoSymm Pop=mk IOp(6/33=2) GFIn
 put GFPrint
 ----------------------------------------------------------------------

 Structure from the checkpoint file:  "binder_1oiy.antechamber.chk"
 --------------------
 Gaussian Calculation
 --------------------
 Charge =  0 Multiplicity = 1

 SCF Done:  E(RHF) =  -1208.79279132     A.U. after   14 cycles

 Alpha  occ. eigenvalues --  -20.61161 -20.51771 -15.63711 -15.60807 -15.57990
 Alpha  occ. eigenvalues --  -15.56980 -15.56612 -15.56592 -11.37258 -11.37016
 Alpha  occ. eigenvalues --  -11.34929 -11.32819 -11.32182 -11.30126 -11.28953
 Alpha  occ. eigenvalues --  -11.25337 -11.25239 -11.24432 -11.23698 -11.23537
 Alpha  occ. eigenvalues --  -11.23027 -11.23007 -11.22633 -11.22217 -11.21871
 Alpha  occ. eigenvalues --  -11.21740 -11.21593  -1.44830  -1.37371  -1.37095
 Alpha  occ. eigenvalues --   -1.33305  -1.24726  -1.21381  -1.20227  -1.17565
 Alpha  occ. eigenvalues --   -1.14760  -1.13005  -1.06140  -1.03827  -1.02225
 Alpha  occ. eigenvalues --   -1.01073  -1.00668  -0.94648  -0.90554  -0.88586
 Alpha  occ. eigenvalues --   -0.85549  -0.84613  -0.83862  -0.83279  -0.81016
 Alpha  occ. eigenvalues --   -0.79764  -0.77267  -0.75947  -0.74682  -0.73556
 Alpha  occ. eigenvalues --   -0.71651  -0.69179  -0.68029  -0.67296  -0.66713
 Alpha  occ. eigenvalues --   -0.65834  -0.64287  -0.63491  -0.62871  -0.62008
 Alpha  occ. eigenvalues --   -0.60572  -0.60110  -0.60001  -0.59689  -0.59641
 Alpha  occ. eigenvalues --   -0.59150  -0.59064  -0.56750  -0.55804  -0.54532
 Alpha  occ. eigenvalues --   -0.53444  -0.52952  -0.51736  -0.51607  -0.50961
 Alpha  occ. eigenvalues --   -0.50051  -0.49398  -0.48520  -0.47669  -0.45712
 Alpha  occ. eigenvalues --   -0.45345  -0.45058  -0.44050  -0.43420  -0.42886
 Alpha  occ. eigenvalues --   -0.42142  -0.41479  -0.40482  -0.39063  -0.34392
 Alpha  occ. eigenvalues --   -0.33187  -0.28199
 Alpha virt. eigenvalues --    0.10034   0.12447   0.14068   0.17188   0.20951
 Alpha virt. eigenvalues --    0.21629   0.21877   0.22346   0.23274   0.23816
 Alpha virt. eigenvalues --    0.24621   0.26171   0.27379   0.27432   0.27716

 Mulliken charges:
               1
     1  C    0.920845
     2  C    0.284003
     3  C    0.017588
     4  C   -0.185564
     5  C   -0.319633
     6  C   -0.309773
     7  C   -0.310411
     8  C   -0.313582
     9  C   -0.314036
    10  C   -0.165466
    11  C   -0.148549
    12  C   -0.196027
    13  C   -0.251031
    14  N   -0.769840
    15  C    0.790781
    16  O   -0.655795
    17  C    0.028837
    18  N   -0.534239
    19  N   -0.839038
    20  C    0.692128
    21  N   -0.724128
    22  N   -0.969388
    23  C    0.399872
    24  C   -0.277107
    25  H    0.232324
    26  H    0.179269
    27  H    0.174499
    28  H    0.174408
    29  H    0.151370
    30  H    0.160385
    31  H    0.163610
    32  H    0.154812
    33  H    0.151139
    34  H    0.163720
    35  H    0.165374
    36  H    0.154801
    37  H    0.198553
    38  H    0.145539
    39  H    0.255210
    40  H    0.211262
    41  H    0.280004
    42  H    0.414584
    43  H    0.414648
    44  H    0.204401
    45  C    0.770411
    46  O   -0.622040
    47  H    0.391448
    48  N   -0.920748
    49  H    0.380571
 Sum of Mulliken charges =  -0.00000

 Dipole moment (field-independent basis, Debye):
    X=             -4.0774    Y=              1.7416    Z=             -0.3727  Tot=              4.4494
 Quadrupole moment (field-independent basis, Debye-Ang):
   XX=           -209.5738   YY=            -23.1792   ZZ=           -165.4100
   XY=           -104.3842   XZ=            -23.5910   YZ=             -8.4184

 ESP charges:
               1
     1  C    0.721032
     2  C    0.292780
     3  C    0.012227
     4  C    0.012749
     5  C   -0.089153
     6  C    0.012080
     7  C   -0.030603
     8  C   -0.039269
     9  C   -0.041204
    10  C   -0.006895
    11  C   -0.203536
    12  C   -0.070624
    13  C   -0.284866
    14  N   -0.562346
    15  C    0.452928
    16  O   -0.297840
    17  C    0.071915
    18  N   -0.576792
    19  N   -0.581690
    20  C    0.566959
    21  N   -0.750605
    22  N   -0.570558
    23  C    0.447861
    24  C   -0.412771
    25  H    0.130656
    26  H    0.091642
    27  H    0.100105
    28  H    0.052400
    29  H    0.030853
    30  H    0.017828
    31  H    0.004173
    32  H    0.013693
    33  H    0.019013
    34  H    0.007936
    35  H    0.016995
    36  H    0.021527
    37  H    0.027498
    38  H    0.027932
    39  H    0.142594
    40  H    0.144049
    41  H    0.111131
    42  H    0.408750
    43  H    0.338822
    44  H    0.191716
    45  C    0.823962
    46  O   -0.619551
    47  H    0.417547
    48  N   -0.975326
    49  H    0.382277
 Sum of ESP charges =  -0.00000

 Normal termination of Gaussian 16 at Thu Jan 30 17:35:21 2025.
