 Gaussian 16, Revision A.03,

 ------------------------
 #P HF/6-31G* OPT(CalcFC)
 ------------------------

 --------------------
 Gaussian Calculation
 --------------------
 Symbolic Z-matrix:
 Charge =  0 Multiplicity = 1

 SCF Done:  E(RHF) =  -1552.24557928     A.U. after   16 cycles
 SCF Done:  E(RHF) =  -1552.30821976     A.U. after   14 cycles
 SCF Done:  E(RHF) =  -1552.34627644     A.U. after   16 cycles
 SCF Done:  E(RHF) =  -1552.35199824     A.U. after   17 cycles
 SCF Done:  E(RHF) =  -1552.35499548     A.U. after   14 cycles
 SCF Done:  E(RHF) =  -1552.29333499     A.U. after   16 cycles
 SCF Done:  E(RHF) =  -1552.35646788     A.U. after   14 cycles
 SCF Done:  E(RHF) =  -1552.35677810     A.U. after   14 cycles
 SCF Done:  E(RHF) =  -1552.35679495     A.U. after   13 cycles
 SCF Done:  E(RHF) =  -1552.35692619     A.U. after   13 cycles
 SCF Done:  E(RHF) =  -1552.35711528     A.U. after   10 cycles
 SCF Done:  E(RHF) =  -1552.35711551     A.U. after   10 cycles
 SCF Done:  E(RHF) =  -1552.35711562     A.U. after    9 cycles
 SCF Done:  E(RHF) =  -1552.35711564     A.U. after    7 cycles
 Optimization completed.
    -- Stationary point found.
 Normal termination of Gaussian 16 at Thu Jan 30 16:18:09 2025.

 --------------------------------------------------------
 #P PBE1PBE/6-31G* OPT(CalcFC) GEOM(ALLCheck) Guess(Read)
 --------------------------------------------------------

 Structure from the checkpoint file:  "binder_31.antechamber.chk"
 --------------------
 Gaussian Calculation
 --------------------
 Charge =  0 Multiplicity = 1

 SCF Done:  E(RPBE1PBE) =  -1558.79263834     A.U. after   13 cycles

  Exact polarizability:   0.000   0.000   0.000   0.000   0.000   0.000
 Approx polarizability: 464.038 -46.635 434.827 -10.276  -5.500 214.521

 SCF Done:  E(RPBE1PBE) =  -1558.79858775     A.U. after   12 cycles
 SCF Done:  E(RPBE1PBE) =  -1558.79867027     A.U. after   12 cycles
 SCF Done:  E(RPBE1PBE) =  -1558.79867245     A.U. after   10 cycles
 SCF Done:  E(RPBE1PBE) =  -1558.79867250     A.U. after    7 cycles
 Optimization completed.
    -- Stationary point found.

                         Standard orientation:
 ---------------------------------------------------------------------
 Center     Atomic      Atomic             Coordinates (Angstroms)
 Number     Number       Type             X           Y           Z
 ---------------------------------------------------------------------
      1          6           0        0.221693   -2.520961    0.063871
      2          6           0        4.331896   -3.918353   -0.167093
      3          6           0        1.854949    1.132040   -0.302120
      4          6           0        2.757719    2.344657   -0.419995
      5          6           0        1.913345    3.615186   -0.556901
      6          6           0        2.789573    4.862262   -0.667028
      7          6           0        3.756465    4.972258    0.510473
      8          6           0        4.599942    3.706595    0.651432
      9          6           0        3.722742    2.461106    0.762629
     10          6           0       -4.560498   -1.324052    0.394503
     11          6           0       -4.359399    0.048328    0.264123
     12          6           0       -3.073965    0.555593    0.130916
     13          6           0       -1.976741   -0.296381    0.095726
     14          7           0        0.778531   -1.304224   -0.063678
     15          6           0        2.098369   -1.217062   -0.174264
     16          8           0        2.683975   -0.035740   -0.301191
     17          6           0        2.887806   -2.377893   -0.158823
     18          7           0        4.242068   -2.621564   -0.248523
     19          7           0        3.114682   -4.549841   -0.028403
     20          6           0        2.162531   -3.568614   -0.020223
     21          7           0        0.845560   -3.704849    0.094227
     22          7           0       -1.144143   -2.623124    0.180140
     23          6           0       -2.165691   -1.681953    0.202832
     24          6           0       -3.472793   -2.179927    0.354526
     25          1           0        5.255688   -4.481767   -0.201142
     26          1           0        1.151858    1.071120   -1.141684
     27          1           0        1.270707    1.159615    0.626457
     28          1           0        3.352109    2.225795   -1.339181
     29          1           0        1.260185    3.709311    0.324353
     30          1           0        1.251410    3.538629   -1.429842
     31          1           0        2.159552    5.757900   -0.730774
     32          1           0        3.364130    4.816281   -1.603771
     33          1           0        3.182004    5.128472    1.435562
     34          1           0        4.401660    5.851532    0.391129
     35          1           0        5.258781    3.781174    1.525321
     36          1           0        5.256242    3.608755   -0.225843
     37          1           0        4.339030    1.557714    0.828072
     38          1           0        3.134834    2.512821    1.692676
     39          1           0       -5.560503   -1.730842    0.530526
     40          1           0       -2.948205    1.633731    0.065431
     41          1           0       -0.973705    0.092906   -0.009222
     42          1           0        2.942199   -5.539776    0.053973
     43          1           0       -1.431165   -3.587432    0.272433
     44          1           0       -3.628895   -3.252456    0.452243
     45         16           0       -5.733580    1.209521    0.349690
     46          8           0       -5.143303    2.593807    0.379367
     47          1           0       -7.199258    1.591168   -1.494241
     48          1           0       -5.542620    1.191304   -2.046955
     49          6           0       -6.338390    0.934304   -1.342575
     50          1           0       -6.638326   -0.110412   -1.464365
 ---------------------------------------------------------------------

 Normal termination of Gaussian 16 at Thu Jan 30 17:46:07 2025.
 Gaussian 16:  ES64L-G16RevA.03 25-Dec-2016

 ----------------------------------------------------------------------
 #P HF/6-31G* GEOM(AllCheck) Guess(Read) NoSymm Pop=mk IOp(6/33=2) GFIn
 put GFPrint
 ----------------------------------------------------------------------

 Structure from the checkpoint file:  "binder_31.antechamber.chk"
 --------------------
 Gaussian Calculation
 --------------------
 Charge =  0 Multiplicity = 1

 SCF Done:  E(RHF) =  -1552.35053973     A.U. after   14 cycles

 Alpha  occ. eigenvalues --  -92.06067 -20.60938 -20.50182 -15.63633 -15.60783
 Alpha  occ. eigenvalues --  -15.56882 -15.56506 -15.56473 -11.37186 -11.36889
 Alpha  occ. eigenvalues --  -11.32727 -11.32076 -11.30167 -11.28602 -11.25986
 Alpha  occ. eigenvalues --  -11.25645 -11.25552 -11.25218 -11.24616 -11.24614
 Alpha  occ. eigenvalues --  -11.23196 -11.22602 -11.22038 -11.21684 -11.21423
 Alpha  occ. eigenvalues --  -11.21351 -11.21217  -9.05534  -6.73834  -6.73801
 Alpha  occ. eigenvalues --   -6.73594  -1.44620  -1.37275  -1.33234  -1.32421
 Alpha  occ. eigenvalues --   -1.24699  -1.21270  -1.17485  -1.15567  -1.12566
 Alpha  occ. eigenvalues --   -1.06481  -1.04622  -1.02903  -1.02425  -1.00223
 Alpha  occ. eigenvalues --   -0.99486  -0.94341  -0.90382  -0.88431  -0.86017
 Alpha  occ. eigenvalues --   -0.84513  -0.84129  -0.83066  -0.81179  -0.80219
 Alpha  occ. eigenvalues --   -0.77685  -0.75558  -0.74586  -0.72507  -0.68995
 Alpha  occ. eigenvalues --   -0.67789  -0.67489  -0.66149  -0.65923  -0.64075
 Alpha  occ. eigenvalues --   -0.63270  -0.62706  -0.61845  -0.61423  -0.60745
 Alpha  occ. eigenvalues --   -0.60120  -0.59671  -0.59662  -0.59371  -0.59038
 Alpha  occ. eigenvalues --   -0.58648  -0.57594  -0.55606  -0.53676  -0.53373
 Alpha  occ. eigenvalues --   -0.52479  -0.51623  -0.51359  -0.51078  -0.50980
 Alpha  occ. eigenvalues --   -0.49861  -0.49665  -0.48039  -0.47286  -0.45653
 Alpha  occ. eigenvalues --   -0.45514  -0.44941  -0.43878  -0.42997  -0.42473
 Alpha  occ. eigenvalues --   -0.41480  -0.40801  -0.38966  -0.36807  -0.34784
 Alpha  occ. eigenvalues --   -0.32876  -0.28120
 Alpha virt. eigenvalues --    0.10882   0.12843   0.13477   0.17655   0.20336
 Alpha virt. eigenvalues --    0.20925   0.21645   0.21825   0.22665   0.22850
 Alpha virt. eigenvalues --    0.24066   0.24724   0.25197   0.27284   0.27505

 Mulliken charges:
               1
     1  C    0.920361
     2  C    0.283432
     3  C    0.015629
     4  C   -0.185833
     5  C   -0.320523
     6  C   -0.310261
     7  C   -0.310433
     8  C   -0.313074
     9  C   -0.313929
    10  C   -0.179759
    11  C   -0.320087
    12  C   -0.178875
    13  C   -0.236130
    14  N   -0.770002
    15  C    0.792344
    16  O   -0.655516
    17  C    0.027999
    18  N   -0.533277
    19  N   -0.839296
    20  C    0.691584
    21  N   -0.726153
    22  N   -0.967843
    23  C    0.392605
    24  C   -0.264770
    25  H    0.231876
    26  H    0.180193
    27  H    0.176952
    28  H    0.173468
    29  H    0.155314
    30  H    0.163831
    31  H    0.166094
    32  H    0.153291
    33  H    0.151969
    34  H    0.162663
    35  H    0.164094
    36  H    0.153875
    37  H    0.196443
    38  H    0.145867
    39  H    0.216187
    40  H    0.268987
    41  H    0.284533
    42  H    0.413824
    43  H    0.412415
    44  H    0.203809
    45  S    0.995922
    46  O   -0.795993
    47  H    0.208938
    48  H    0.219449
    49  C   -0.692240
    50  H    0.190046
 Sum of Mulliken charges =  -0.00000

 Dipole moment (field-independent basis, Debye):
    X=             -0.4384    Y=              5.0473    Z=             -4.0954  Tot=              6.5146
 Quadrupole moment (field-independent basis, Debye-Ang):
   XX=           -171.5242   YY=            118.0292   ZZ=           -219.1788
   XY=              3.7430   XZ=            -23.0870   YZ=            -72.7638

 ESP charges:
               1
     1  C    0.683763
     2  C    0.299777
     3  C    0.029407
     4  C    0.034285
     5  C   -0.092228
     6  C    0.025725
     7  C   -0.031550
     8  C   -0.022958
     9  C   -0.086630
    10  C   -0.043540
    11  C   -0.090011
    12  C    0.152203
    13  C   -0.463003
    14  N   -0.533391
    15  C    0.442810
    16  O   -0.297482
    17  C    0.064900
    18  N   -0.578796
    19  N   -0.599098
    20  C    0.595682
    21  N   -0.754468
    22  N   -0.548975
    23  C    0.490569
    24  C   -0.443803
    25  H    0.128307
    26  H    0.085178
    27  H    0.087254
    28  H    0.044520
    29  H    0.034939
    30  H    0.017676
    31  H    0.001932
    32  H    0.007807
    33  H    0.017019
    34  H    0.004141
    35  H    0.014123
    36  H    0.020246
    37  H    0.037407
    38  H    0.038345
    39  H    0.146810
    40  H    0.109387
    41  H    0.166659
    42  H    0.410051
    43  H    0.330041
    44  H    0.200690
    45  S    0.287996
    46  O   -0.501631
    47  H    0.194385
    48  H    0.161590
    49  C   -0.409956
    50  H    0.131896
 Sum of ESP charges =  -0.00000

 Normal termination of Gaussian 16 at Thu Jan 30 17:48:21 2025.
