 Gaussian 16, Revision A.03,

 ------------------------
 #P HF/6-31G* OPT(CalcFC)
 ------------------------

 --------------------
 Gaussian Calculation
 --------------------
 Symbolic Z-matrix:
 Charge =  0 Multiplicity = 1

 SCF Done:  E(RHF) =  -1154.78289748     A.U. after   15 cycles
 SCF Done:  E(RHF) =  -1154.84358467     A.U. after   16 cycles
 SCF Done:  E(RHF) =  -1154.87519352     A.U. after   15 cycles
 SCF Done:  E(RHF) =  -1154.87826593     A.U. after   16 cycles
 SCF Done:  E(RHF) =  -1154.84773873     A.U. after   16 cycles
 SCF Done:  E(RHF) =  -1154.88422595     A.U. after   16 cycles
 SCF Done:  E(RHF) =  -1154.88431827     A.U. after   14 cycles
 SCF Done:  E(RHF) =  -1154.88714670     A.U. after   16 cycles
 SCF Done:  E(RHF) =  -1154.88715711     A.U. after   16 cycles
 SCF Done:  E(RHF) =  -1154.87551944     A.U. after   16 cycles
 Optimization completed.
    -- Stationary point found.
 Normal termination of Gaussian 16 at Thu Jan 30 16:09:20 2025.

 --------------------------------------------------------
 #P PBE1PBE/6-31G* OPT(CalcFC) GEOM(ALLCheck) Guess(Read)
 --------------------------------------------------------

 Structure from the checkpoint file:  "binder_26.antechamber.chk"
 --------------------
 Gaussian Calculation
 --------------------
 Charge =  0 Multiplicity = 1

  Exact polarizability:   0.000   0.000   0.000   0.000   0.000   0.000
 Approx polarizability: 371.448 -57.833 381.479  28.363  30.469 242.154

 SCF Done:  E(RPBE1PBE) =  -1160.79272085     A.U. after   14 cycles
 SCF Done:  E(RPBE1PBE) =  -1160.79273223     A.U. after   14 cycles
 SCF Done:  E(RPBE1PBE) =  -1160.79314274     A.U. after   11 cycles
 SCF Done:  E(RPBE1PBE) =  -1160.79321069     A.U. after   11 cycles
 SCF Done:  E(RPBE1PBE) =  -1160.79323382     A.U. after   11 cycles
 SCF Done:  E(RPBE1PBE) =  -1160.79323587     A.U. after   10 cycles
 SCF Done:  E(RPBE1PBE) =  -1160.79323650     A.U. after    9 cycles
 SCF Done:  E(RPBE1PBE) =  -1160.79323653     A.U. after    7 cycles
 SCF Done:  E(RPBE1PBE) =  -1160.79323654     A.U. after    6 cycles
 Optimization completed.
    -- Stationary point found.

                         Standard orientation:
 ---------------------------------------------------------------------
 Center     Atomic      Atomic             Coordinates (Angstroms)
 Number     Number       Type             X           Y           Z
 ---------------------------------------------------------------------
      1          6           0       -0.826423   -2.197449   -0.020817
      2          6           0        2.801573   -4.599953    0.047370
      3          6           0        1.697578    0.909587    0.314186
      4          6           0        2.881385    1.852709    0.410992
      5          6           0        3.809478    1.738302   -0.800974
      6          6           0        4.976619    2.719345   -0.709792
      7          6           0        4.486304    4.155256   -0.533789
      8          6           0        3.558198    4.276858    0.673483
      9          6           0        2.391909    3.293578    0.583546
     10          6           0       -3.221339    1.627585    0.076781
     11          6           0       -4.607156    1.490524   -0.027734
     12          6           0       -5.149120    0.211314   -0.149773
     13          6           0       -4.308200   -0.896557   -0.165614
     14          7           0        0.030794   -1.164671    0.095258
     15          6           0        1.330136   -1.420218    0.157828
     16          8           0        2.203362   -0.427685    0.273071
     17          6           0        1.798355   -2.742334    0.104104
     18          7           0        3.048491   -3.324841    0.141754
     19          7           0        1.459039   -4.897853   -0.051026
     20          6           0        0.788160   -3.706084   -0.016545
     21          7           0       -0.522212   -3.502558   -0.083068
     22          7           0       -2.169161   -1.944493   -0.087050
     23          6           0       -2.919952   -0.766230   -0.061508
     24          6           0       -2.383400    0.524094    0.061332
     25          1           0        3.551376   -5.380872    0.043031
     26          1           0        1.109096    1.101589   -0.592204
     27          1           0        1.028908    1.014803    1.177309
     28          1           0        3.453305    1.573771    1.309566
     29          1           0        3.227015    1.950242   -1.711584
     30          1           0        4.173907    0.709256   -0.891633
     31          1           0        5.607344    2.637475   -1.603595
     32          1           0        5.611939    2.446142    0.145565
     33          1           0        3.943006    4.464778   -1.438993
     34          1           0        5.336519    4.840899   -0.429844
     35          1           0        3.178464    5.302138    0.763481
     36          1           0        4.129791    4.073292    1.590820
     37          1           0        1.758051    3.374138    1.476809
     38          1           0        1.758292    3.562339   -0.275944
     39          1           0       -2.808531    2.627640    0.171776
     40          8           0       -5.329436    2.643154   -0.001047
     41          1           0       -6.219645    0.058598   -0.233540
     42          1           0       -4.747790   -1.887704   -0.261889
     43          1           0        1.036385   -5.809317   -0.133441
     44          1           0       -2.700317   -2.799139   -0.174135
     45          1           0       -1.312289    0.645884    0.143498
     46          6           0       -6.727033    2.534645   -0.104694
     47          1           0       -7.114989    3.554161   -0.063814
     48          1           0       -7.029727    2.072673   -1.054634
     49          1           0       -7.152612    1.954534    0.725834
 ---------------------------------------------------------------------

 1\1\GINC-BUMBU\FOpt\RPBE1PBE\6-31G(d)\C19H23N5O2\PB777\30-Jan-2025\0\\
 #P PBE1PBE/6-31G* OPT(CalcFC) GEOM(ALLCheck) Guess(Read)\\Gaussian Cal
 culation\\0,1\C,1.4329481419,28.9160024921,6.664669036\C,-2.1298433003
 ,31.2783392747,7.4800903816\C,0.0548911971,26.5493515586,9.6034459702\
 C,-0.7237762381,25.8563994943,10.7051464955\C,-2.1165403411,25.4228384
 685,10.2408829575\C,-2.8759314972,24.6930728836,11.3471128076\C,-2.082
 4375913,23.4993427544,11.8749416042\C,-0.6904334397,23.9243484363,12.3
 39019846\C,0.0683652158,24.6567254712,11.2331228821\C,4.3042555464,25.

 Normal termination of Gaussian 16 at Thu Jan 30 17:54:49 2025.
 Gaussian 16:  ES64L-G16RevA.03 25-Dec-2016

 ----------------------------------------------------------------------
 #P HF/6-31G* GEOM(AllCheck) Guess(Read) NoSymm Pop=mk IOp(6/33=2) GFIn
 put GFPrint
 ----------------------------------------------------------------------

 Structure from the checkpoint file:  "binder_26.antechamber.chk"
 --------------------
 Gaussian Calculation
 --------------------
 Charge =  0 Multiplicity = 1

 SCF Done:  E(RHF) =  -1154.88297741     A.U. after   14 cycles

 Alpha  occ. eigenvalues --  -20.60330 -20.58315 -15.62893 -15.59374 -15.56242
 Alpha  occ. eigenvalues --  -15.55546 -15.55468 -11.36201 -11.36107 -11.31943
 Alpha  occ. eigenvalues --  -11.31388 -11.28763 -11.28228 -11.28168 -11.27689
 Alpha  occ. eigenvalues --  -11.24369 -11.23477 -11.23203 -11.22511 -11.22381
 Alpha  occ. eigenvalues --  -11.22375 -11.21973 -11.21668 -11.21390 -11.21255
 Alpha  occ. eigenvalues --  -11.21035  -1.43957  -1.40559  -1.36461  -1.32162
 Alpha  occ. eigenvalues --   -1.23312  -1.20449  -1.16626  -1.13313  -1.12387
 Alpha  occ. eigenvalues --   -1.05141  -1.02853  -1.01424  -1.00141  -0.99820
 Alpha  occ. eigenvalues --   -0.94168  -0.93636  -0.88200  -0.86752  -0.83835
 Alpha  occ. eigenvalues --   -0.83669  -0.82989  -0.81136  -0.80074  -0.77043
 Alpha  occ. eigenvalues --   -0.75329  -0.73965  -0.71922  -0.69927  -0.68409
 Alpha  occ. eigenvalues --   -0.67216  -0.66190  -0.65624  -0.64955  -0.63836
 Alpha  occ. eigenvalues --   -0.63426  -0.62743  -0.61270  -0.61086  -0.59974
 Alpha  occ. eigenvalues --   -0.59390  -0.59045  -0.58381  -0.58121  -0.56902
 Alpha  occ. eigenvalues --   -0.55560  -0.54859  -0.52918  -0.52385  -0.51937
 Alpha  occ. eigenvalues --   -0.51612  -0.50896  -0.50064  -0.49588  -0.48234
 Alpha  occ. eigenvalues --   -0.47955  -0.47563  -0.46994  -0.44978  -0.44621
 Alpha  occ. eigenvalues --   -0.43362  -0.42857  -0.42488  -0.42124  -0.40555
 Alpha  occ. eigenvalues --   -0.38201  -0.33539  -0.31359  -0.26071
 Alpha virt. eigenvalues --    0.12763   0.14234   0.15380   0.19903   0.22258
 Alpha virt. eigenvalues --    0.22283   0.22765   0.23273   0.24361   0.24857
 Alpha virt. eigenvalues --    0.25307   0.27298   0.28017   0.28218   0.29683

 Mulliken charges:
               1
     1  C    0.920757
     2  C    0.281612
     3  C    0.017895
     4  C   -0.185276
     5  C   -0.313659
     6  C   -0.313015
     7  C   -0.309865
     8  C   -0.309659
     9  C   -0.319636
    10  C   -0.247088
    11  C    0.414877
    12  C   -0.271756
    13  C   -0.253811
    14  N   -0.772703
    15  C    0.789813
    16  O   -0.657662
    17  C    0.023529
    18  N   -0.534684
    19  N   -0.840463
    20  C    0.692134
    21  N   -0.730299
    22  N   -0.967653
    23  C    0.361375
    24  C   -0.222071
    25  H    0.228716
    26  H    0.175226
    27  H    0.179764
    28  H    0.173257
    29  H    0.144778
    30  H    0.198117
    31  H    0.163635
    32  H    0.154042
    33  H    0.150380
    34  H    0.162025
    35  H    0.163293
    36  H    0.153854
    37  H    0.163024
    38  H    0.151945
    39  H    0.215370
    40  O   -0.654253
    41  H    0.209570
    42  H    0.197298
    43  H    0.411997
    44  H    0.408291
    45  H    0.278323
    46  C   -0.187066
    47  H    0.189518
    48  H    0.158101
    49  H    0.158103
 Sum of Mulliken charges =  -0.00000

 Dipole moment (field-independent basis, Debye):
    X=              1.1517    Y=              1.7666    Z=             -2.3703  Tot=              3.1726
 Quadrupole moment (field-independent basis, Debye-Ang):
   XX=           -140.1556   YY=            -37.9926   ZZ=           -182.2091
   XY=             25.4724   XZ=              1.2065   YZ=            -63.2246

 ESP charges:
               1
     1  C    0.733165
     2  C    0.315501
     3  C   -0.123864
     4  C    0.090076
     5  C   -0.054842
     6  C   -0.066321
     7  C    0.003106
     8  C   -0.041441
     9  C   -0.054059
    10  C   -0.376697
    11  C    0.437971
    12  C   -0.259167
    13  C   -0.339122
    14  N   -0.638059
    15  C    0.564315
    16  O   -0.284408
    17  C   -0.018201
    18  N   -0.574429
    19  N   -0.608931
    20  C    0.616754
    21  N   -0.780443
    22  N   -0.511297
    23  C    0.259353
    24  C   -0.112961
    25  H    0.122152
    26  H    0.115264
    27  H    0.120912
    28  H    0.036486
    29  H    0.032786
    30  H    0.029198
    31  H    0.021026
    32  H    0.027682
    33  H    0.010400
    34  H    0.004408
    35  H    0.012967
    36  H    0.020220
    37  H    0.012202
    38  H    0.027775
    39  H    0.186094
    40  O   -0.395790
    41  H    0.169615
    42  H    0.195525
    43  H    0.411331
    44  H    0.326733
    45  H    0.130465
    46  C    0.043777
    47  H    0.079981
    48  H    0.040377
    49  H    0.042413
 Sum of ESP charges =   0.00000

 Normal termination of Gaussian 16 at Thu Jan 30 17:56:48 2025.
