 Gaussian 16, Revision A.03,

 ------------------------
 #P HF/6-31G* OPT(CalcFC)
 ------------------------

 --------------------
 Gaussian Calculation
 --------------------
 Symbolic Z-matrix:
 Charge =  0 Multiplicity = 1

 SCF Done:  E(RHF) =  -1721.13257577     A.U. after   16 cycles
 SCF Done:  E(RHF) =  -1721.19973171     A.U. after   16 cycles
 SCF Done:  E(RHF) =  -1721.24005904     A.U. after   15 cycles
 SCF Done:  E(RHF) =  -1721.24620299     A.U. after   16 cycles
 SCF Done:  E(RHF) =  -1721.24149018     A.U. after   16 cycles
 SCF Done:  E(RHF) =  -1721.25686781     A.U. after   14 cycles
 SCF Done:  E(RHF) =  -1721.23880072     A.U. after   15 cycles
 SCF Done:  E(RHF) =  -1721.25941186     A.U. after   14 cycles
 SCF Done:  E(RHF) =  -1721.26066998     A.U. after   14 cycles
 SCF Done:  E(RHF) =  -1721.26136104     A.U. after   13 cycles
 SCF Done:  E(RHF) =  -1721.26241106     A.U. after    9 cycles
 SCF Done:  E(RHF) =  -1721.26241113     A.U. after    7 cycles
 SCF Done:  E(RHF) =  -1721.26241114     A.U. after    6 cycles
 Optimization completed.
    -- Stationary point found.
 Normal termination of Gaussian 16 at Thu Jan 30 16:44:23 2025.

 --------------------------------------------------------
 #P PBE1PBE/6-31G* OPT(CalcFC) GEOM(ALLCheck) Guess(Read)
 --------------------------------------------------------

 Structure from the checkpoint file:  "binder_29.antechamber.chk"
 --------------------
 Gaussian Calculation
 --------------------
 Charge =  0 Multiplicity = 1

 SCF Done:  E(RPBE1PBE) =  -1728.48060049     A.U. after   13 cycles

  Exact polarizability:   0.000   0.000   0.000   0.000   0.000   0.000
 Approx polarizability: 493.978  39.833 446.257 -23.924   7.665 245.548

 SCF Done:  E(RPBE1PBE) =  -1728.48843842     A.U. after   12 cycles
 SCF Done:  E(RPBE1PBE) =  -1728.48858031     A.U. after   11 cycles
 SCF Done:  E(RPBE1PBE) =  -1728.48859635     A.U. after   10 cycles
 SCF Done:  E(RPBE1PBE) =  -1728.48859761     A.U. after    8 cycles
 SCF Done:  E(RPBE1PBE) =  -1728.48859766     A.U. after    6 cycles
 Optimization completed.
    -- Stationary point found.

                         Standard orientation:
 ---------------------------------------------------------------------
 Center     Atomic      Atomic             Coordinates (Angstroms)
 Number     Number       Type             X           Y           Z
 ---------------------------------------------------------------------
      1          6           0       -1.033704   -2.563881   -0.087748
      2          6           0       -5.200303   -3.728211    0.322153
      3          6           0       -2.450745    1.179900    0.268739
      4          6           0       -3.282529    2.441923    0.390048
      5          6           0       -2.366250    3.666430    0.474629
      6          6           0       -3.169213    4.961794    0.586014
      7          6           0       -4.165655    5.102447   -0.563173
      8          6           0       -5.081097    3.882879   -0.651688
      9          6           0       -4.277287    2.588915   -0.764176
     10          6           0        2.415967    0.320700   -0.343291
     11          6           0        3.669897   -0.257641   -0.532260
     12          6           0        3.789236   -1.644458   -0.633413
     13          6           0        2.659279   -2.436178   -0.537413
     14          7           0       -1.516362   -1.316539    0.038337
     15          6           0       -2.824889   -1.154501    0.196038
     16          8           0       -3.340187    0.058801    0.321839
     17          6           0       -3.675901   -2.270378    0.231813
     18          7           0       -5.036694   -2.437060    0.376267
     19          7           0       -4.025841   -4.428323    0.150174
     20          6           0       -3.022921   -3.501662    0.088415
     21          7           0       -1.720232   -3.711356   -0.072750
     22          7           0        0.321197   -2.744918   -0.254319
     23          6           0        1.388399   -1.865650   -0.338007
     24          6           0        1.279101   -0.469032   -0.246069
     25          1           0       -6.151599   -4.238878    0.400858
     26          1           0       -1.723354    1.097828    1.085661
     27          1           0       -1.898833    1.156922   -0.679562
     28          1           0       -3.852262    2.372995    1.329661
     29          1           0       -1.737533    3.707742   -0.428290
     30          1           0       -1.682230    3.569897    1.328525
     31          1           0       -2.489682    5.822453    0.611781
     32          1           0       -3.715079    4.965120    1.540811
     33          1           0       -3.613480    5.209240   -1.508603
     34          1           0       -4.757731    6.018025   -0.442120
     35          1           0       -5.762207    3.977034   -1.506305
     36          1           0       -5.713620    3.838170    0.247076
     37          1           0       -4.943862    1.719924   -0.791553
     38          1           0       -3.717816    2.590326   -1.712974
     39          1           0        2.329425    1.402230   -0.301113
     40          1           0        4.762017   -2.089991   -0.816187
     41          1           0        2.752278   -3.516343   -0.628781
     42          1           0       -3.911406   -5.427582    0.078715
     43          1           0        0.549491   -3.725382   -0.343116
     44          1           0        0.303823   -0.023497   -0.109552
     45         16           0        5.119913    0.761666   -0.593279
     46          8           0        4.703533    2.094483   -1.007262
     47          8           0        6.150816    0.014690   -1.301064
     48          7           0        5.665338    0.918286    0.985680
     49          6           0        4.825633    1.710097    1.868990
     50          1           0        5.422497    1.990678    2.742535
     51          1           0        4.517873    2.620607    1.353426
     52          1           0        3.935202    1.160599    2.215082
     53          6           0        6.213471   -0.285545    1.587772
     54          1           0        6.800772    0.010201    2.462797
     55          1           0        5.432646   -0.992118    1.912911
     56          1           0        6.878002   -0.774955    0.874707
 ---------------------------------------------------------------------

 Normal termination of Gaussian 16 at Thu Jan 30 18:38:24 2025.
 Gaussian 16:  ES64L-G16RevA.03 25-Dec-2016

 ----------------------------------------------------------------------
 #P HF/6-31G* GEOM(AllCheck) Guess(Read) NoSymm Pop=mk IOp(6/33=2) GFIn
 put GFPrint
 ----------------------------------------------------------------------

 Structure from the checkpoint file:  "binder_29.antechamber.chk"
 --------------------
 Gaussian Calculation
 --------------------
 Charge =  0 Multiplicity = 1

 SCF Done:  E(RHF) =  -1721.25372165     A.U. after   14 cycles

 Alpha  occ. eigenvalues --  -92.20017 -20.61513 -20.54555 -20.54547 -15.64145
 Alpha  occ. eigenvalues --  -15.61673 -15.59869 -15.57357 -15.57186 -15.57166
 Alpha  occ. eigenvalues --  -11.37862 -11.37487 -11.33288 -11.32577 -11.31492
 Alpha  occ. eigenvalues --  -11.29190 -11.26723 -11.26538 -11.26526 -11.26509
 Alpha  occ. eigenvalues --  -11.26402 -11.25816 -11.25157 -11.24121 -11.23105
 Alpha  occ. eigenvalues --  -11.22576 -11.22131 -11.21807 -11.21733 -11.21643
 Alpha  occ. eigenvalues --   -9.17088  -6.85704  -6.85676  -6.85589  -1.45213
 Alpha  occ. eigenvalues --   -1.45023  -1.37846  -1.33949  -1.33126  -1.25570
 Alpha  occ. eigenvalues --   -1.24647  -1.21865  -1.18083  -1.16478  -1.13041
 Alpha  occ. eigenvalues --   -1.06847  -1.04476  -1.03778  -1.02133  -1.00665
 Alpha  occ. eigenvalues --   -0.97642  -0.95072  -0.94472  -0.90541  -0.88837
 Alpha  occ. eigenvalues --   -0.86108  -0.85058  -0.84605  -0.83495  -0.81162
 Alpha  occ. eigenvalues --   -0.80111  -0.78134  -0.76068  -0.75198  -0.73448
 Alpha  occ. eigenvalues --   -0.71839  -0.69821  -0.69042  -0.68351  -0.67670
 Alpha  occ. eigenvalues --   -0.66600  -0.65458  -0.64642  -0.64335  -0.63797
 Alpha  occ. eigenvalues --   -0.63300  -0.62478  -0.62133  -0.60763  -0.60584
 Alpha  occ. eigenvalues --   -0.60225  -0.60109  -0.59853  -0.59580  -0.57810
 Alpha  occ. eigenvalues --   -0.57055  -0.56301  -0.56081  -0.54108  -0.53541
 Alpha  occ. eigenvalues --   -0.52931  -0.52674  -0.52245  -0.51557  -0.50770
 Alpha  occ. eigenvalues --   -0.50341  -0.48987  -0.48495  -0.48376  -0.47790
 Alpha  occ. eigenvalues --   -0.46963  -0.46147  -0.45677  -0.45394  -0.44652
 Alpha  occ. eigenvalues --   -0.44383  -0.43453  -0.42942  -0.42031  -0.39873
 Alpha  occ. eigenvalues --   -0.39526  -0.35717  -0.34314  -0.29164
 Alpha virt. eigenvalues --    0.09622   0.11866   0.12846   0.16998   0.20657
 Alpha virt. eigenvalues --    0.21236   0.21611   0.22277   0.22861   0.23567
 Alpha virt. eigenvalues --    0.24416   0.25120   0.26893   0.27125   0.27501

 Mulliken charges:
               1
     1  C    0.920767
     2  C    0.284790
     3  C    0.015807
     4  C   -0.185814
     5  C   -0.320433
     6  C   -0.310248
     7  C   -0.310859
     8  C   -0.313512
     9  C   -0.314313
    10  C   -0.168049
    11  C   -0.356818
    12  C   -0.160673
    13  C   -0.274163
    14  N   -0.770961
    15  C    0.793085
    16  O   -0.654376
    17  C    0.030409
    18  N   -0.533013
    19  N   -0.838614
    20  C    0.691985
    21  N   -0.723093
    22  N   -0.968431
    23  C    0.405362
    24  C   -0.245905
    25  H    0.234020
    26  H    0.177891
    27  H    0.176902
    28  H    0.174510
    29  H    0.154356
    30  H    0.161303
    31  H    0.165982
    32  H    0.154105
    33  H    0.152538
    34  H    0.164006
    35  H    0.165532
    36  H    0.154486
    37  H    0.196917
    38  H    0.146522
    39  H    0.256203
    40  H    0.259494
    41  H    0.210351
    42  H    0.415328
    43  H    0.415927
    44  H    0.288660
    45  S    1.708864
    46  O   -0.708798
    47  O   -0.709667
    48  N   -0.702955
    49  C   -0.329721
    50  H    0.188730
    51  H    0.229533
    52  H    0.158910
    53  C   -0.329605
    54  H    0.188940
    55  H    0.158307
    56  H    0.229501
 Sum of Mulliken charges =  -0.00000

 Dipole moment (field-independent basis, Debye):
    X=             -5.2557    Y=              5.3050    Z=             -3.2950  Tot=              8.1623
 Quadrupole moment (field-independent basis, Debye-Ang):
   XX=           -245.1653   YY=            121.5175   ZZ=           -221.1411
   XY=           -110.0724   XZ=            -48.0235   YZ=            -51.6027

 ESP charges:
               1
     1  C    0.761451
     2  C    0.330735
     3  C    0.015325
     4  C    0.024137
     5  C   -0.085839
     6  C    0.010181
     7  C   -0.030977
     8  C   -0.036441
     9  C   -0.089670
    10  C   -0.181483
    11  C    0.040415
    12  C   -0.094541
    13  C   -0.402288
    14  N   -0.605045
    15  C    0.482702
    16  O   -0.303601
    17  C    0.039450
    18  N   -0.578866
    19  N   -0.611188
    20  C    0.596494
    21  N   -0.765451
    22  N   -0.580256
    23  C    0.424045
    24  C   -0.213266
    25  H    0.120099
    26  H    0.091001
    27  H    0.104592
    28  H    0.052845
    29  H    0.034961
    30  H    0.016267
    31  H    0.006608
    32  H    0.012099
    33  H    0.020244
    34  H    0.007651
    35  H    0.020057
    36  H    0.025137
    37  H    0.042890
    38  H    0.038931
    39  H    0.182105
    40  H    0.173245
    41  H    0.199025
    42  H    0.415314
    43  H    0.343042
    44  H    0.110283
    45  S    0.901699
    46  O   -0.527688
    47  O   -0.532150
    48  N   -0.211058
    49  C   -0.308428
    50  H    0.149738
    51  H    0.150733
    52  H    0.114167
    53  C   -0.320129
    54  H    0.153561
    55  H    0.112925
    56  H    0.154212
 Sum of ESP charges =   0.00000

 Normal termination of Gaussian 16 at Thu Jan 30 18:41:03 2025.
