 Gaussian 16, Revision A.03,

 ------------------------
 #P HF/6-31G* OPT(CalcFC)
 ------------------------

 --------------------
 Gaussian Calculation
 --------------------
 Symbolic Z-matrix:
 Charge =  0 Multiplicity = 1

 SCF Done:  E(RHF) =  -1643.08067250     A.U. after   16 cycles
 SCF Done:  E(RHF) =  -1643.14541369     A.U. after   16 cycles
 SCF Done:  E(RHF) =  -1643.18368759     A.U. after   16 cycles
 SCF Done:  E(RHF) =  -1643.18868514     A.U. after   16 cycles
 SCF Done:  E(RHF) =  -1643.15882146     A.U. after   16 cycles
 SCF Done:  E(RHF) =  -1643.19557768     A.U. after   15 cycles
 SCF Done:  E(RHF) =  -1643.19136714     A.U. after   15 cycles
 SCF Done:  E(RHF) =  -1643.19974423     A.U. after   16 cycles
 SCF Done:  E(RHF) =  -1643.16867932     A.U. after   15 cycles
 SCF Done:  E(RHF) =  -1643.20282535     A.U. after   14 cycles
 SCF Done:  E(RHF) =  -1643.20463897     A.U. after    9 cycles
 SCF Done:  E(RHF) =  -1643.20463919     A.U. after    8 cycles
 SCF Done:  E(RHF) =  -1643.20463936     A.U. after    8 cycles
 SCF Done:  E(RHF) =  -1643.20463945     A.U. after    8 cycles
 Optimization completed.
    -- Stationary point found.
 Normal termination of Gaussian 16 at Thu Jan 30 16:31:08 2025.

 --------------------------------------------------------
 #P PBE1PBE/6-31G* OPT(CalcFC) GEOM(ALLCheck) Guess(Read)
 --------------------------------------------------------

 Structure from the checkpoint file:  "binder_1h1s.antechamber.chk"
 --------------------
 Gaussian Calculation
 --------------------
 Charge =  0 Multiplicity = 1

 SCF Done:  E(RPBE1PBE) =  -1649.95974607     A.U. after   13 cycles

  Exact polarizability:   0.000   0.000   0.000   0.000   0.000   0.000
 Approx polarizability: 465.401 -41.515 422.734 -11.519 -12.974 212.098

 SCF Done:  E(RPBE1PBE) =  -1649.96709973     A.U. after   12 cycles
 SCF Done:  E(RPBE1PBE) =  -1649.96719026     A.U. after   11 cycles
 SCF Done:  E(RPBE1PBE) =  -1649.96719348     A.U. after    8 cycles
 SCF Done:  E(RPBE1PBE) =  -1649.96719359     A.U. after    6 cycles
 Optimization completed.
    -- Stationary point found.

                         Standard orientation:
 ---------------------------------------------------------------------
 Center     Atomic      Atomic             Coordinates (Angstroms)
 Number     Number       Type             X           Y           Z
 ---------------------------------------------------------------------
      1          6           0        0.530805   -2.531224    0.034807
      2          6           0        4.670982   -3.842002   -0.113819
      3          6           0        2.095147    1.155831   -0.305959
      4          6           0        2.976532    2.385630   -0.406023
      5          6           0        2.110190    3.639812   -0.556197
      6          6           0        2.963868    4.903847   -0.649080
      7          6           0        3.907385    5.030388    0.545571
      8          6           0        4.772537    3.781055    0.699800
      9          6           0        3.917851    2.518614    0.793858
     10          6           0       -4.281296   -1.440399    0.273441
     11          6           0       -4.106798   -0.062596    0.146186
     12          6           0       -2.825773    0.470854    0.027214
     13          6           0       -1.713249   -0.358070    0.015465
     14          7           0        1.062178   -1.303529   -0.086787
     15          6           0        2.382460   -1.188489   -0.172707
     16          8           0        2.945762    0.003795   -0.291572
     17          6           0        3.194987   -2.332759   -0.138917
     18          7           0        4.555162   -2.547553   -0.202036
     19          7           0        3.465322   -4.498921    0.004143
     20          6           0        2.493053   -3.538366   -0.009418
     21          7           0        1.176775   -3.700948    0.080977
     22          7           0       -0.837205   -2.663703    0.126607
     23          6           0       -1.876250   -1.748197    0.128308
     24          6           0       -3.175976   -2.271411    0.262428
     25          1           0        5.607093   -4.385531   -0.128128
     26          1           0        1.408976    1.082780   -1.158613
     27          1           0        1.494189    1.170704    0.612237
     28          1           0        3.589185    2.279802   -1.314699
     29          1           0        1.440088    3.719822    0.313740
     30          1           0        1.465677    3.551929   -1.441208
     31          1           0        2.317829    5.787215   -0.722661
     32          1           0        3.555508    4.870563   -1.575623
     33          1           0        3.313865    5.174259    1.460540
     34          1           0        4.537467    5.922024    0.438595
     35          1           0        5.413945    3.866797    1.585445
     36          1           0        5.446228    3.697322   -0.165633
     37          1           0        4.550417    1.627317    0.868953
     38          1           0        3.312720    2.557282    1.713415
     39          1           0       -5.278769   -1.848666    0.405169
     40          1           0       -2.699902    1.548081   -0.032372
     41          1           0       -0.716486    0.051359   -0.069193
     42          1           0        3.312842   -5.492111    0.088304
     43          1           0       -1.103560   -3.634005    0.221085
     44          1           0       -3.311573   -3.345381    0.371436
     45         16           0       -5.521779    1.008312    0.118062
     46          8           0       -5.075991    2.331812    0.523937
     47          8           0       -6.614806    0.301887    0.767636
     48          1           0       -5.286774    1.634126   -2.044209
     49          7           0       -5.990173    1.171834   -1.477521
     50          1           0       -6.303372    0.295997   -1.882996
 ---------------------------------------------------------------------

 Normal termination of Gaussian 16 at Thu Jan 30 18:01:08 2025.
 Gaussian 16:  ES64L-G16RevA.03 25-Dec-2016

 ----------------------------------------------------------------------
 #P HF/6-31G* GEOM(AllCheck) Guess(Read) NoSymm Pop=mk IOp(6/33=2) GFIn
 put GFPrint
 ----------------------------------------------------------------------

 Structure from the checkpoint file:  "binder_1h1s.antechamber.chk"
 --------------------
 Gaussian Calculation
 --------------------
 Charge =  0 Multiplicity = 1

 SCF Done:  E(RHF) =  -1643.19662038     A.U. after   14 cycles

 Alpha  occ. eigenvalues --  -92.20816 -20.61622 -20.54949 -20.54939 -15.64251
 Alpha  occ. eigenvalues --  -15.61855 -15.60433 -15.57455 -15.57323 -15.57306
 Alpha  occ. eigenvalues --  -11.38002 -11.37610 -11.33404 -11.32678 -11.31740
 Alpha  occ. eigenvalues --  -11.29295 -11.26998 -11.26846 -11.26729 -11.25935
 Alpha  occ. eigenvalues --  -11.25429 -11.24389 -11.23178 -11.22637 -11.22177
 Alpha  occ. eigenvalues --  -11.21851 -11.21781 -11.21700  -9.17847  -6.86457
 Alpha  occ. eigenvalues --   -6.86456  -6.86349  -1.45463  -1.45328  -1.37963
 Alpha  occ. eigenvalues --   -1.34095  -1.33600  -1.25747  -1.21987  -1.21133
 Alpha  occ. eigenvalues --   -1.18207  -1.16708  -1.13105  -1.06971  -1.04551
 Alpha  occ. eigenvalues --   -1.04050  -1.02184  -1.00718  -0.95009  -0.92239
 Alpha  occ. eigenvalues --   -0.89440  -0.87381  -0.85428  -0.85091  -0.83661
 Alpha  occ. eigenvalues --   -0.82548  -0.80968  -0.78883  -0.76157  -0.75331
 Alpha  occ. eigenvalues --   -0.74566  -0.72645  -0.71741  -0.69872  -0.68473
 Alpha  occ. eigenvalues --   -0.68208  -0.67292  -0.66671  -0.64741  -0.64045
 Alpha  occ. eigenvalues --   -0.63767  -0.63137  -0.62448  -0.61055  -0.61007
 Alpha  occ. eigenvalues --   -0.60638  -0.60334  -0.59936  -0.59695  -0.58326
 Alpha  occ. eigenvalues --   -0.56200  -0.54410  -0.53075  -0.52984  -0.52520
 Alpha  occ. eigenvalues --   -0.51657  -0.50991  -0.50499  -0.49802  -0.48921
 Alpha  occ. eigenvalues --   -0.48882  -0.48548  -0.47788  -0.46352  -0.46304
 Alpha  occ. eigenvalues --   -0.45626  -0.45452  -0.44705  -0.44513  -0.43511
 Alpha  occ. eigenvalues --   -0.43003  -0.42140  -0.39650  -0.36030  -0.34540
 Alpha  occ. eigenvalues --   -0.29333
 Alpha virt. eigenvalues --    0.09380   0.11666   0.12663   0.16839   0.20373
 Alpha virt. eigenvalues --    0.20549   0.21151   0.21837   0.22203   0.23355
 Alpha virt. eigenvalues --    0.24439   0.25606   0.26817   0.27040   0.27631

 Mulliken charges:
               1
     1  C    0.920620
     2  C    0.284988
     3  C    0.015845
     4  C   -0.185941
     5  C   -0.320426
     6  C   -0.310335
     7  C   -0.310921
     8  C   -0.313559
     9  C   -0.314364
    10  C   -0.164565
    11  C   -0.353074
    12  C   -0.171672
    13  C   -0.243499
    14  N   -0.771421
    15  C    0.793353
    16  O   -0.654092
    17  C    0.030724
    18  N   -0.532851
    19  N   -0.838532
    20  C    0.692045
    21  N   -0.722771
    22  N   -0.968334
    23  C    0.405342
    24  C   -0.271619
    25  H    0.234420
    26  H    0.177569
    27  H    0.176757
    28  H    0.174548
    29  H    0.154460
    30  H    0.161172
    31  H    0.166352
    32  H    0.154165
    33  H    0.152618
    34  H    0.164212
    35  H    0.165678
    36  H    0.154546
    37  H    0.197055
    38  H    0.146503
    39  H    0.261686
    40  H    0.258172
    41  H    0.289963
    42  H    0.415546
    43  H    0.416257
    44  H    0.211658
    45  S    1.607990
    46  O   -0.685327
    47  O   -0.686183
    48  H    0.390973
    49  N   -0.946540
    50  H    0.390809
 Sum of Mulliken charges =  -0.00000

 Dipole moment (field-independent basis, Debye):
    X=             -5.6075    Y=              5.6524    Z=             -3.7305  Tot=              8.7926
 Quadrupole moment (field-independent basis, Debye-Ang):
   XX=           -235.4676   YY=            148.1193   ZZ=           -217.6266
   XY=           -117.2972   XZ=            -54.6724   YZ=            -60.9209

 ESP charges:
               1
     1  C    0.743977
     2  C    0.298137
     3  C   -0.024033
     4  C    0.064274
     5  C   -0.096623
     6  C    0.017928
     7  C   -0.040631
     8  C   -0.032108
     9  C   -0.058136
    10  C    0.022575
    11  C   -0.240994
    12  C   -0.074282
    13  C   -0.266598
    14  N   -0.627441
    15  C    0.544440
    16  O   -0.317261
    17  C    0.046274
    18  N   -0.577489
    19  N   -0.581311
    20  C    0.567249
    21  N   -0.752106
    22  N   -0.593754
    23  C    0.489551
    24  C   -0.450337
    25  H    0.131647
    26  H    0.093214
    27  H    0.108000
    28  H    0.042277
    29  H    0.034002
    30  H    0.016740
    31  H    0.005943
    32  H    0.010956
    33  H    0.021146
    34  H    0.010046
    35  H    0.017427
    36  H    0.018981
    37  H    0.028939
    38  H    0.028627
    39  H    0.153700
    40  H    0.167382
    41  H    0.128062
    42  H    0.409871
    43  H    0.346727
    44  H    0.202276
    45  S    1.210694
    46  O   -0.567750
    47  O   -0.571195
    48  H    0.407894
    49  N   -0.922503
    50  H    0.405595
 Sum of ESP charges =   0.00000

 Normal termination of Gaussian 16 at Thu Jan 30 18:03:21 2025.
