 Gaussian 16, Revision A.03,

 ------------------------
 #P HF/6-31G* OPT(CalcFC)
 ------------------------

 --------------------
 Gaussian Calculation
 --------------------
 Symbolic Z-matrix:
 Charge =  0 Multiplicity = 1

 SCF Done:  E(RHF) =  -1115.75878773     A.U. after   16 cycles
 SCF Done:  E(RHF) =  -1115.81904400     A.U. after   16 cycles
 SCF Done:  E(RHF) =  -1115.84973160     A.U. after   15 cycles
 SCF Done:  E(RHF) =  -1115.85245212     A.U. after   17 cycles
 SCF Done:  E(RHF) =  -1115.82228897     A.U. after   16 cycles
 SCF Done:  E(RHF) =  -1115.85836834     A.U. after   16 cycles
 SCF Done:  E(RHF) =  -1115.86141928     A.U. after   15 cycles
 SCF Done:  E(RHF) =  -1115.86423904     A.U. after   14 cycles
 SCF Done:  E(RHF) =  -1115.86494344     A.U. after   15 cycles
 SCF Done:  E(RHF) =  -1115.86484719     A.U. after   15 cycles
 Optimization completed.
    -- Stationary point found.
 Normal termination of Gaussian 16 at Thu Jan 30 15:42:24 2025.

 --------------------------------------------------------
 #P PBE1PBE/6-31G* OPT(CalcFC) GEOM(ALLCheck) Guess(Read)
 --------------------------------------------------------

 Structure from the checkpoint file:  "binder_1oi9.antechamber.chk"
 --------------------
 Gaussian Calculation
 --------------------
 Charge =  0 Multiplicity = 1

  Exact polarizability:   0.000   0.000   0.000   0.000   0.000   0.000
 Approx polarizability: 311.974 -31.101 407.516  40.557  10.607 232.706

 SCF Done:  E(RPBE1PBE) =  -1121.53735003     A.U. after   14 cycles
 SCF Done:  E(RPBE1PBE) =  -1121.53725377     A.U. after   14 cycles
 SCF Done:  E(RPBE1PBE) =  -1121.53780144     A.U. after   12 cycles
 SCF Done:  E(RPBE1PBE) =  -1121.53784764     A.U. after   12 cycles
 SCF Done:  E(RPBE1PBE) =  -1121.53789008     A.U. after   10 cycles
 SCF Done:  E(RPBE1PBE) =  -1121.53789857     A.U. after   11 cycles
 SCF Done:  E(RPBE1PBE) =  -1121.53790049     A.U. after    9 cycles
 SCF Done:  E(RPBE1PBE) =  -1121.53790054     A.U. after    7 cycles
 SCF Done:  E(RPBE1PBE) =  -1121.53790056     A.U. after    6 cycles
 Optimization completed.
    -- Stationary point found.

                         Standard orientation:
 ---------------------------------------------------------------------
 Center     Atomic      Atomic             Coordinates (Angstroms)
 Number     Number       Type             X           Y           Z
 ---------------------------------------------------------------------
      1          6           0       -1.644134   -1.710392   -0.025570
      2          6           0        1.218834   -4.986532    0.063279
      3          6           0        1.610793    0.620076    0.303625
      4          6           0        3.000765    1.217657    0.408600
      5          6           0        3.875304    0.858573   -0.795356
      6          6           0        5.259186    1.497376   -0.695345
      7          6           0        5.163498    3.012330   -0.525122
      8          6           0        4.290646    3.378288    0.673998
      9          6           0        2.907062    2.737158    0.575092
     10          6           0       -5.168009    1.755682   -0.169485
     11          6           0       -4.307638    2.846218   -0.054811
     12          6           0       -2.937359    2.616448    0.048539
     13          6           0       -2.425074    1.326115    0.038579
     14          7           0       -0.544524   -0.940516    0.087848
     15          6           0        0.640965   -1.530332    0.155178
     16          8           0        1.745306   -0.803520    0.268696
     17          6           0        0.742700   -2.929444    0.108612
     18          7           0        1.794132   -3.821692    0.152385
     19          7           0       -0.154551   -4.919198   -0.037351
     20          6           0       -0.486299   -3.592286   -0.010248
     21          7           0       -1.696097   -3.049724   -0.081045
     22          7           0       -2.872017   -1.111375   -0.096169
     23          6           0       -3.283302    0.224258   -0.076672
     24          6           0       -4.659015    0.464120   -0.179978
     25          1           0        1.735348   -5.937989    0.064603
     26          1           0        1.100649    0.957315   -0.607864
     27          1           0        0.987375    0.901409    1.161136
     28          1           0        3.471990    0.801081    1.312341
     29          1           0        3.376609    1.213746   -1.711073
     30          1           0        3.956101   -0.230456   -0.881892
     31          1           0        5.853000    1.249066   -1.583671
     32          1           0        5.793136    1.069106    0.165692
     33          1           0        4.728333    3.451147   -1.435312
     34          1           0        6.163558    3.449856   -0.414599
     35          1           0        4.194105    4.467695    0.759738
     36          1           0        4.780855    3.034072    1.596423
     37          1           0        2.309727    2.985131    1.462716
     38          1           0        2.373805    3.160538   -0.290241
     39          1           0       -6.242708    1.909708   -0.251524
     40          8           0       -4.741427    4.137558   -0.038315
     41          1           0       -2.270949    3.469148    0.137936
     42          1           0       -1.360075    1.158497    0.119557
     43          1           0       -0.803125   -5.686840   -0.116607
     44          1           0       -3.610316   -1.795420   -0.179983
     45          1           0       -5.346402   -0.374782   -0.270531
     46          1           0       -5.704178    4.141325   -0.117057
 ---------------------------------------------------------------------

 1\1\GINC-BUMBU\FOpt\RPBE1PBE\6-31G(d)\C18H21N5O2\PB777\30-Jan-2025\0\\
 #P PBE1PBE/6-31G* OPT(CalcFC) GEOM(ALLCheck) Guess(Read)\\Gaussian Cal
 culation\\0,1\C,1.4183253773,28.9850181878,6.6616865275\C,-2.207655561
 7,31.24766356,7.4803910132\C,0.0868316665,26.5558870095,9.5703704758\C
 ,-0.6743878057,25.8366905176,10.6673879716\C,-2.055870247,25.370901322
 9,10.2006798085\C,-2.7963407899,24.6155692206,11.3026675835\C,-1.97279
 54302,23.4390841308,11.8231222327\C,-0.5917608123,23.8963270908,12.289
 3363804\C,0.1479490635,24.6541198662,11.1876492982\C,5.6143147956,26.6

 Normal termination of Gaussian 16 at Thu Jan 30 17:20:04 2025.
 Gaussian 16:  ES64L-G16RevA.03 25-Dec-2016

 ----------------------------------------------------------------------
 #P HF/6-31G* GEOM(AllCheck) Guess(Read) NoSymm Pop=mk IOp(6/33=2) GFIn
 put GFPrint
 ----------------------------------------------------------------------

 Structure from the checkpoint file:  "binder_1oi9.antechamber.chk"
 --------------------
 Gaussian Calculation
 --------------------
 Charge =  0 Multiplicity = 1

 SCF Done:  E(RHF) =  -1115.85757465     A.U. after   14 cycles

 Alpha  occ. eigenvalues --  -20.60392 -20.58864 -15.62952 -15.59486 -15.56297
 Alpha  occ. eigenvalues --  -15.55626 -15.55545 -11.36282 -11.36177 -11.32011
 Alpha  occ. eigenvalues --  -11.31445 -11.29165 -11.28224 -11.27855 -11.24436
 Alpha  occ. eigenvalues --  -11.23873 -11.23599 -11.22724 -11.22602 -11.22414
 Alpha  occ. eigenvalues --  -11.22003 -11.21690 -11.21411 -11.21281 -11.21070
 Alpha  occ. eigenvalues --   -1.44021  -1.39751  -1.36526  -1.32248  -1.23419
 Alpha  occ. eigenvalues --   -1.20516  -1.16694  -1.13373  -1.12421  -1.05136
 Alpha  occ. eigenvalues --   -1.02708  -1.01604  -1.00153  -0.98823  -0.93903
 Alpha  occ. eigenvalues --   -0.88857  -0.87261  -0.84134  -0.83874  -0.83032
 Alpha  occ. eigenvalues --   -0.82313  -0.80211  -0.77472  -0.75398  -0.74488
 Alpha  occ. eigenvalues --   -0.72439  -0.71157  -0.68063  -0.67268  -0.66421
 Alpha  occ. eigenvalues --   -0.65713  -0.63790  -0.63399  -0.62792  -0.61363
 Alpha  occ. eigenvalues --   -0.60421  -0.60003  -0.59427  -0.59124  -0.58717
 Alpha  occ. eigenvalues --   -0.58624  -0.57598  -0.56698  -0.55065  -0.54557
 Alpha  occ. eigenvalues --   -0.52679  -0.52412  -0.51050  -0.50683  -0.49947
 Alpha  occ. eigenvalues --   -0.49141  -0.48667  -0.47976  -0.47074  -0.45032
 Alpha  occ. eigenvalues --   -0.44691  -0.43495  -0.43003  -0.42811  -0.42268
 Alpha  occ. eigenvalues --   -0.40632  -0.38270  -0.33855  -0.31524  -0.26240
 Alpha virt. eigenvalues --    0.12662   0.14087   0.15242   0.19856   0.22011
 Alpha virt. eigenvalues --    0.22211   0.22222   0.22753   0.23466   0.24295
 Alpha virt. eigenvalues --    0.25199   0.26776   0.27972   0.28188   0.29637

 Mulliken charges:
               1
     1  C    0.920710
     2  C    0.281733
     3  C    0.017872
     4  C   -0.185284
     5  C   -0.313654
     6  C   -0.313052
     7  C   -0.309907
     8  C   -0.309710
     9  C   -0.319721
    10  C   -0.273947
    11  C    0.394364
    12  C   -0.241953
    13  C   -0.221937
    14  N   -0.773212
    15  C    0.790059
    16  O   -0.657487
    17  C    0.023638
    18  N   -0.534563
    19  N   -0.840448
    20  C    0.692195
    21  N   -0.730308
    22  N   -0.967594
    23  C    0.358671
    24  C   -0.249939
    25  H    0.228941
    26  H    0.174895
    27  H    0.179848
    28  H    0.173339
    29  H    0.144803
    30  H    0.198044
    31  H    0.163731
    32  H    0.154088
    33  H    0.150456
    34  H    0.162157
    35  H    0.163493
    36  H    0.153903
    37  H    0.163065
    38  H    0.151946
    39  H    0.193884
    40  O   -0.763329
    41  H    0.216860
    42  H    0.279535
    43  H    0.412089
    44  H    0.408243
    45  H    0.200154
    46  H    0.453329
 Sum of Mulliken charges =  -0.00000

 Dipole moment (field-independent basis, Debye):
    X=              0.8346    Y=              2.2376    Z=             -2.4622  Tot=              3.4302
 Quadrupole moment (field-independent basis, Debye-Ang):
   XX=           -136.5769   YY=             -7.8201   ZZ=           -176.6975
   XY=             20.4229   XZ=             -1.8174   YZ=            -62.7701

 ESP charges:
               1
     1  C    0.716480
     2  C    0.324919
     3  C   -0.152398
     4  C    0.116188
     5  C   -0.071788
     6  C   -0.044558
     7  C   -0.017694
     8  C   -0.008961
     9  C   -0.060782
    10  C   -0.364829
    11  C    0.443429
    12  C   -0.293885
    13  C   -0.199542
    14  N   -0.579328
    15  C    0.511805
    16  O   -0.266899
    17  C    0.020445
    18  N   -0.584498
    19  N   -0.592794
    20  C    0.567712
    21  N   -0.754823
    22  N   -0.530577
    23  C    0.297562
    24  C   -0.278346
    25  H    0.117956
    26  H    0.121244
    27  H    0.126432
    28  H    0.031344
    29  H    0.035723
    30  H    0.029565
    31  H    0.017822
    32  H    0.022742
    33  H    0.012856
    34  H    0.005763
    35  H    0.006526
    36  H    0.011517
    37  H    0.008905
    38  H    0.023034
    39  H    0.186905
    40  O   -0.633400
    41  H    0.198180
    42  H    0.131052
    43  H    0.406947
    44  H    0.321814
    45  H    0.190304
    46  H    0.429933
 Sum of ESP charges =   0.00000

 Normal termination of Gaussian 16 at Thu Jan 30 17:21:53 2025.
